/*--------------------------------*- C++ -*----------------------------------*\
  =========                 |
  \\      /  F ield         | OpenFOAM: The Open Source CFD Toolbox
   \\    /   O peration     | Website:  https://openfoam.org
    \\  /    A nd           | Version:  12
     \\/     M anipulation  |
\*---------------------------------------------------------------------------*/
FoamFile
{
    format      ascii;
    class       volScalarField;
    location    "4";
    object      T;
}
// * * * * * * * * * * * * * * * * * * * * * * * * * * * * * * * * * * * * * //

dimensions      [0 0 0 1 0 0 0];

internalField   nonuniform List<scalar> 
1250
(
0.968719
0.906407
0.844839
0.784478
0.725745
0.669005
0.614565
0.562668
0.513496
0.467174
0.423771
0.383308
0.345765
0.311088
0.27919
0.249967
0.223291
0.199028
0.17703
0.157149
0.139235
0.123137
0.108709
0.0958119
0.0843098
0.0740754
0.0649891
0.056939
0.0498214
0.0435407
0.0380093
0.0331469
0.028881
0.0251455
0.0218813
0.019035
0.016559
0.0144109
0.0125532
0.0109527
0.00958036
0.00841078
0.00742203
0.0065953
0.00591467
0.00536688
0.00494121
0.00462926
0.00442481
0.0043237
0.968719
0.906407
0.844839
0.784479
0.725745
0.669005
0.614565
0.562668
0.513496
0.467174
0.423771
0.383308
0.345765
0.311088
0.27919
0.249967
0.223291
0.199028
0.17703
0.157149
0.139235
0.123137
0.108709
0.0958119
0.0843098
0.0740754
0.0649891
0.056939
0.0498214
0.0435407
0.0380093
0.0331469
0.028881
0.0251455
0.0218813
0.019035
0.016559
0.0144109
0.0125532
0.0109527
0.0095803
0.00841071
0.00742196
0.00659523
0.00591461
0.00536681
0.00494106
0.00462895
0.00442438
0.00432347
0.968719
0.906407
0.844839
0.784479
0.725745
0.669005
0.614565
0.562668
0.513496
0.467174
0.423771
0.383308
0.345765
0.311088
0.27919
0.249967
0.223291
0.199028
0.17703
0.157149
0.139235
0.123137
0.108709
0.0958119
0.0843098
0.0740754
0.0649891
0.056939
0.0498214
0.0435407
0.0380093
0.0331469
0.028881
0.0251455
0.0218813
0.0190349
0.0165589
0.0144109
0.0125531
0.0109526
0.00958027
0.00841067
0.00742191
0.00659518
0.00591457
0.00536685
0.0049412
0.00462912
0.00442442
0.00432336
0.968719
0.906407
0.844839
0.784479
0.725745
0.669005
0.614565
0.562668
0.513496
0.467174
0.423771
0.383308
0.345765
0.311088
0.27919
0.249967
0.223291
0.199028
0.17703
0.157149
0.139235
0.123137
0.108709
0.0958119
0.0843097
0.0740754
0.0649891
0.056939
0.0498214
0.0435407
0.0380092
0.0331469
0.0288809
0.0251455
0.0218812
0.0190349
0.0165589
0.0144108
0.0125531
0.0109526
0.00958023
0.00841064
0.00742188
0.00659513
0.00591448
0.00536672
0.00494111
0.00462915
0.00442449
0.00432332
0.968719
0.906407
0.844839
0.784479
0.725745
0.669005
0.614565
0.562668
0.513496
0.467174
0.423771
0.383308
0.345765
0.311088
0.27919
0.249967
0.223291
0.199028
0.17703
0.157149
0.139235
0.123137
0.108709
0.0958118
0.0843097
0.0740754
0.0649891
0.056939
0.0498214
0.0435407
0.0380092
0.0331469
0.0288809
0.0251455
0.0218812
0.0190349
0.0165589
0.0144108
0.0125531
0.0109526
0.0095802
0.00841062
0.00742187
0.00659514
0.0059145
0.0053667
0.00494104
0.00462911
0.00442452
0.00432332
0.968719
0.906407
0.844839
0.784479
0.725745
0.669005
0.614565
0.562668
0.513496
0.467174
0.423771
0.383308
0.345765
0.311088
0.27919
0.249967
0.223291
0.199028
0.17703
0.157149
0.139235
0.123137
0.108709
0.0958118
0.0843097
0.0740754
0.064989
0.0569389
0.0498213
0.0435406
0.0380092
0.0331468
0.0288809
0.0251454
0.0218812
0.0190348
0.0165588
0.0144108
0.012553
0.0109525
0.00958017
0.00841057
0.00742183
0.00659512
0.00591451
0.00536673
0.00494103
0.00462907
0.00442453
0.00432333
0.968719
0.906407
0.844839
0.784479
0.725745
0.669005
0.614565
0.562668
0.513496
0.467174
0.423771
0.383308
0.345765
0.311088
0.27919
0.249967
0.223291
0.199028
0.17703
0.157149
0.139235
0.123137
0.108709
0.0958118
0.0843097
0.0740753
0.064989
0.0569389
0.0498213
0.0435406
0.0380091
0.0331468
0.0288808
0.0251454
0.0218811
0.0190348
0.0165588
0.0144107
0.012553
0.0109525
0.00958016
0.00841056
0.00742181
0.00659509
0.00591449
0.00536674
0.00494106
0.00462907
0.00442453
0.00432334
0.968719
0.906407
0.844839
0.784479
0.725745
0.669005
0.614565
0.562668
0.513496
0.467174
0.423771
0.383308
0.345765
0.311088
0.27919
0.249967
0.223291
0.199028
0.17703
0.157149
0.139235
0.123137
0.108709
0.0958118
0.0843096
0.0740753
0.064989
0.0569389
0.0498213
0.0435406
0.0380091
0.0331467
0.0288808
0.0251453
0.0218811
0.0190348
0.0165588
0.0144107
0.012553
0.0109525
0.00958014
0.00841056
0.00742181
0.00659509
0.00591448
0.00536675
0.00494108
0.00462909
0.00442455
0.00432336
0.968719
0.906407
0.844839
0.784479
0.725745
0.669005
0.614565
0.562668
0.513496
0.467174
0.423771
0.383308
0.345765
0.311088
0.27919
0.249967
0.223291
0.199028
0.17703
0.157149
0.139235
0.123136
0.108709
0.0958117
0.0843096
0.0740753
0.0649889
0.0569388
0.0498212
0.0435405
0.038009
0.0331467
0.0288807
0.0251453
0.0218811
0.0190347
0.0165587
0.0144107
0.012553
0.0109525
0.00958012
0.00841056
0.00742182
0.00659511
0.0059145
0.00536676
0.00494111
0.00462912
0.00442458
0.0043234
0.968719
0.906407
0.844839
0.784479
0.725745
0.669005
0.614565
0.562668
0.513496
0.467174
0.423771
0.383308
0.345765
0.311088
0.27919
0.249967
0.223291
0.199028
0.17703
0.157149
0.139235
0.123136
0.108709
0.0958117
0.0843095
0.0740752
0.0649889
0.0569388
0.0498211
0.0435405
0.038009
0.0331466
0.0288807
0.0251453
0.021881
0.0190347
0.0165587
0.0144106
0.0125529
0.0109525
0.00958012
0.00841056
0.00742183
0.00659513
0.00591453
0.00536679
0.00494115
0.00462917
0.00442463
0.00432344
0.968719
0.906407
0.844839
0.784479
0.725745
0.669005
0.614565
0.562668
0.513496
0.467174
0.423771
0.383308
0.345765
0.311087
0.27919
0.249967
0.223291
0.199028
0.17703
0.157149
0.139234
0.123136
0.108709
0.0958116
0.0843095
0.0740752
0.0649888
0.0569387
0.0498211
0.0435404
0.0380089
0.0331466
0.0288806
0.0251452
0.021881
0.0190347
0.0165587
0.0144106
0.0125529
0.0109525
0.00958013
0.00841057
0.00742185
0.00659516
0.00591457
0.00536684
0.0049412
0.00462922
0.00442469
0.0043235
0.968719
0.906407
0.844839
0.784479
0.725745
0.669005
0.614565
0.562668
0.513496
0.467174
0.423771
0.383308
0.345765
0.311087
0.27919
0.249967
0.223291
0.199027
0.17703
0.157149
0.139234
0.123136
0.108709
0.0958116
0.0843094
0.0740751
0.0649888
0.0569386
0.049821
0.0435404
0.0380089
0.0331465
0.0288806
0.0251452
0.0218809
0.0190346
0.0165587
0.0144106
0.0125529
0.0109525
0.00958014
0.0084106
0.00742188
0.0065952
0.00591462
0.00536689
0.00494126
0.00462929
0.00442476
0.00432357
0.968719
0.906407
0.844839
0.784479
0.725745
0.669005
0.614565
0.562668
0.513496
0.467174
0.423771
0.383308
0.345765
0.311087
0.27919
0.249967
0.223291
0.199027
0.17703
0.157149
0.139234
0.123136
0.108709
0.0958115
0.0843094
0.074075
0.0649887
0.0569386
0.049821
0.0435403
0.0380088
0.0331465
0.0288805
0.0251451
0.0218809
0.0190346
0.0165586
0.0144106
0.0125529
0.0109525
0.00958016
0.00841063
0.00742193
0.00659525
0.00591468
0.00536696
0.00494133
0.00462936
0.00442484
0.00432365
0.968719
0.906407
0.844839
0.784479
0.725745
0.669005
0.614565
0.562668
0.513496
0.467174
0.423771
0.383308
0.345765
0.311087
0.27919
0.249966
0.223291
0.199027
0.17703
0.157149
0.139234
0.123136
0.108709
0.0958115
0.0843093
0.074075
0.0649887
0.0569385
0.0498209
0.0435402
0.0380088
0.0331465
0.0288805
0.0251451
0.0218809
0.0190346
0.0165586
0.0144106
0.0125529
0.0109525
0.00958019
0.00841067
0.00742198
0.00659531
0.00591475
0.00536704
0.00494142
0.00462945
0.00442493
0.00432375
0.968719
0.906407
0.844839
0.784479
0.725745
0.669005
0.614565
0.562668
0.513496
0.467174
0.423771
0.383308
0.345765
0.311087
0.27919
0.249966
0.223291
0.199027
0.17703
0.157149
0.139234
0.123136
0.108709
0.0958114
0.0843093
0.074075
0.0649886
0.0569385
0.0498209
0.0435402
0.0380087
0.0331464
0.0288805
0.0251451
0.0218808
0.0190346
0.0165586
0.0144106
0.012553
0.0109525
0.00958023
0.00841072
0.00742204
0.00659539
0.00591483
0.00536713
0.00494152
0.00462956
0.00442503
0.00432385
0.968719
0.906407
0.844839
0.784479
0.725745
0.669005
0.614565
0.562668
0.513496
0.467174
0.423771
0.383308
0.345765
0.311087
0.27919
0.249966
0.223291
0.199027
0.17703
0.157149
0.139234
0.123136
0.108709
0.0958114
0.0843092
0.0740749
0.0649886
0.0569384
0.0498208
0.0435402
0.0380087
0.0331464
0.0288804
0.025145
0.0218808
0.0190346
0.0165586
0.0144106
0.012553
0.0109526
0.00958028
0.00841078
0.00742211
0.00659547
0.00591492
0.00536723
0.00494162
0.00462967
0.00442515
0.00432397
0.968719
0.906407
0.844839
0.784479
0.725745
0.669005
0.614565
0.562668
0.513496
0.467174
0.423771
0.383308
0.345765
0.311087
0.27919
0.249966
0.223291
0.199027
0.17703
0.157149
0.139234
0.123136
0.108709
0.0958114
0.0843092
0.0740749
0.0649885
0.0569384
0.0498208
0.0435401
0.0380086
0.0331463
0.0288804
0.025145
0.0218808
0.0190346
0.0165586
0.0144106
0.012553
0.0109526
0.00958033
0.00841084
0.00742219
0.00659556
0.00591502
0.00536734
0.00494174
0.00462979
0.00442527
0.00432409
0.968719
0.906407
0.844839
0.784479
0.725745
0.669005
0.614565
0.562668
0.513496
0.467174
0.42377
0.383308
0.345765
0.311087
0.27919
0.249966
0.223291
0.199027
0.17703
0.157149
0.139234
0.123136
0.108709
0.0958113
0.0843092
0.0740748
0.0649885
0.0569384
0.0498208
0.0435401
0.0380086
0.0331463
0.0288804
0.025145
0.0218808
0.0190346
0.0165586
0.0144106
0.012553
0.0109526
0.00958039
0.00841092
0.00742227
0.00659565
0.00591513
0.00536745
0.00494186
0.00462991
0.0044254
0.00432422
0.968719
0.906407
0.844839
0.784479
0.725745
0.669005
0.614565
0.562668
0.513496
0.467174
0.42377
0.383308
0.345765
0.311087
0.27919
0.249966
0.223291
0.199027
0.17703
0.157149
0.139234
0.123136
0.108709
0.0958113
0.0843091
0.0740748
0.0649884
0.0569383
0.0498207
0.04354
0.0380086
0.0331463
0.0288804
0.025145
0.0218808
0.0190346
0.0165586
0.0144107
0.0125531
0.0109527
0.00958045
0.00841099
0.00742236
0.00659575
0.00591524
0.00536757
0.00494198
0.00463004
0.00442553
0.00432436
0.968719
0.906407
0.844839
0.784479
0.725745
0.669005
0.614565
0.562668
0.513496
0.467174
0.42377
0.383308
0.345765
0.311087
0.27919
0.249966
0.223291
0.199027
0.17703
0.157149
0.139234
0.123136
0.108709
0.0958113
0.0843091
0.0740748
0.0649884
0.0569383
0.0498207
0.04354
0.0380086
0.0331463
0.0288803
0.025145
0.0218808
0.0190346
0.0165587
0.0144107
0.0125531
0.0109527
0.00958052
0.00841107
0.00742246
0.00659586
0.00591536
0.0053677
0.00494212
0.00463018
0.00442567
0.00432449
0.968719
0.906407
0.844839
0.784479
0.725745
0.669005
0.614565
0.562668
0.513496
0.467174
0.42377
0.383307
0.345765
0.311087
0.27919
0.249966
0.223291
0.199027
0.17703
0.157149
0.139234
0.123136
0.108709
0.0958112
0.0843091
0.0740747
0.0649884
0.0569383
0.0498207
0.04354
0.0380085
0.0331462
0.0288803
0.025145
0.0218808
0.0190346
0.0165587
0.0144107
0.0125532
0.0109528
0.00958059
0.00841115
0.00742255
0.00659596
0.00591547
0.00536782
0.00494225
0.00463032
0.00442581
0.00432463
0.968719
0.906407
0.844839
0.784479
0.725745
0.669005
0.614565
0.562668
0.513496
0.467174
0.42377
0.383307
0.345765
0.311087
0.27919
0.249966
0.223291
0.199027
0.17703
0.157149
0.139234
0.123136
0.108709
0.0958112
0.0843091
0.0740747
0.0649884
0.0569382
0.0498206
0.04354
0.0380085
0.0331462
0.0288803
0.0251449
0.0218808
0.0190346
0.0165587
0.0144108
0.0125532
0.0109529
0.00958066
0.00841123
0.00742264
0.00659607
0.00591559
0.00536795
0.00494238
0.00463045
0.00442595
0.00432477
0.968719
0.906407
0.844839
0.784479
0.725745
0.669005
0.614565
0.562668
0.513496
0.467174
0.42377
0.383307
0.345765
0.311087
0.27919
0.249966
0.223291
0.199027
0.17703
0.157149
0.139234
0.123136
0.108709
0.0958112
0.084309
0.0740747
0.0649883
0.0569382
0.0498206
0.0435399
0.0380085
0.0331462
0.0288803
0.0251449
0.0218808
0.0190346
0.0165587
0.0144108
0.0125532
0.0109529
0.00958072
0.00841131
0.00742273
0.00659617
0.0059157
0.00536807
0.00494251
0.00463059
0.00442608
0.00432491
0.968719
0.906407
0.844839
0.784479
0.725745
0.669005
0.614565
0.562668
0.513496
0.467174
0.42377
0.383307
0.345765
0.311087
0.27919
0.249966
0.223291
0.199027
0.17703
0.157149
0.139234
0.123136
0.108709
0.0958112
0.084309
0.0740747
0.0649883
0.0569382
0.0498206
0.0435399
0.0380085
0.0331462
0.0288803
0.0251449
0.0218808
0.0190346
0.0165587
0.0144108
0.0125533
0.010953
0.00958078
0.00841138
0.00742282
0.00659627
0.0059158
0.00536818
0.00494262
0.00463071
0.00442621
0.00432503
0.968719
0.906407
0.844839
0.784479
0.725745
0.669005
0.614565
0.562668
0.513496
0.467174
0.42377
0.383307
0.345765
0.311087
0.27919
0.249966
0.223291
0.199027
0.17703
0.157149
0.139234
0.123136
0.108709
0.0958112
0.084309
0.0740747
0.0649883
0.0569382
0.0498206
0.0435399
0.0380085
0.0331462
0.0288803
0.0251449
0.0218808
0.0190346
0.0165588
0.0144108
0.0125533
0.010953
0.00958084
0.00841145
0.00742289
0.00659635
0.0059159
0.00536828
0.00494273
0.00463082
0.00442632
0.00432515
)
;

boundaryField
{
    inlet
    {
        type            fixedValue;
        value           uniform 1;
    }
    outlet
    {
        type            zeroGradient;
    }
    lowerWall
    {
        type            zeroGradient;
    }
    upperWall
    {
        type            zeroGradient;
    }
    frontAndBack
    {
        type            empty;
    }
}


// ************************************************************************* //
