/*--------------------------------*- C++ -*----------------------------------*\
  =========                 |
  \\      /  F ield         | OpenFOAM: The Open Source CFD Toolbox
   \\    /   O peration     | Website:  https://openfoam.org
    \\  /    A nd           | Version:  12
     \\/     M anipulation  |
\*---------------------------------------------------------------------------*/
FoamFile
{
    format      ascii;
    class       volScalarField;
    location    "12";
    object      T;
}
// * * * * * * * * * * * * * * * * * * * * * * * * * * * * * * * * * * * * * //

dimensions      [0 0 0 1 0 0 0];

internalField   nonuniform List<scalar> 
1250
(
0.983201
0.949636
0.916168
0.882861
0.849778
0.816981
0.784529
0.752481
0.720891
0.689814
0.659298
0.62939
0.600135
0.571571
0.543735
0.51666
0.490375
0.464905
0.440271
0.416492
0.393581
0.371548
0.350403
0.330148
0.310786
0.292314
0.27473
0.258026
0.242194
0.227225
0.213106
0.199825
0.187368
0.175719
0.164863
0.154784
0.145466
0.136893
0.129049
0.12192
0.11549
0.109745
0.104674
0.100264
0.0965038
0.0933851
0.0908998
0.0890415
0.0878052
0.0871878
0.983201
0.949636
0.916168
0.882861
0.849778
0.816981
0.784529
0.752481
0.720891
0.689814
0.659298
0.62939
0.600135
0.571571
0.543735
0.51666
0.490375
0.464905
0.440271
0.416492
0.39358
0.371548
0.350403
0.330148
0.310786
0.292314
0.27473
0.258026
0.242194
0.227225
0.213106
0.199825
0.187368
0.175719
0.164863
0.154784
0.145466
0.136893
0.129049
0.12192
0.11549
0.109745
0.104674
0.100264
0.0965037
0.093385
0.0908998
0.0890416
0.0878054
0.087188
0.983201
0.949636
0.916168
0.882861
0.849778
0.816981
0.784529
0.752481
0.720891
0.689813
0.659298
0.62939
0.600134
0.571571
0.543735
0.51666
0.490375
0.464905
0.440271
0.416492
0.39358
0.371548
0.350403
0.330148
0.310786
0.292314
0.27473
0.258026
0.242194
0.227225
0.213106
0.199825
0.187368
0.175719
0.164862
0.154783
0.145465
0.136893
0.129049
0.12192
0.11549
0.109745
0.104674
0.100263
0.0965036
0.0933849
0.0908996
0.0890413
0.0878053
0.0871879
0.983201
0.949636
0.916168
0.882861
0.849778
0.816981
0.784529
0.75248
0.720891
0.689813
0.659297
0.62939
0.600134
0.57157
0.543735
0.51666
0.490375
0.464905
0.440271
0.416491
0.39358
0.371548
0.350402
0.330148
0.310785
0.292314
0.274729
0.258025
0.242194
0.227225
0.213106
0.199825
0.187367
0.175718
0.164862
0.154783
0.145465
0.136892
0.129049
0.121919
0.115489
0.109745
0.104674
0.100263
0.0965035
0.0933848
0.0908995
0.0890411
0.0878051
0.0871878
0.983201
0.949636
0.916168
0.882861
0.849778
0.816981
0.784529
0.75248
0.720891
0.689813
0.659297
0.62939
0.600134
0.57157
0.543735
0.51666
0.490375
0.464905
0.440271
0.416491
0.39358
0.371548
0.350402
0.330148
0.310785
0.292314
0.274729
0.258025
0.242194
0.227225
0.213106
0.199825
0.187367
0.175718
0.164862
0.154783
0.145465
0.136892
0.129049
0.121919
0.115489
0.109745
0.104674
0.100263
0.0965033
0.0933846
0.0908993
0.089041
0.0878049
0.0871877
0.983201
0.949636
0.916168
0.882861
0.849778
0.816981
0.784529
0.75248
0.720891
0.689813
0.659297
0.629389
0.600134
0.57157
0.543734
0.51666
0.490375
0.464904
0.440271
0.416491
0.39358
0.371547
0.350402
0.330147
0.310785
0.292313
0.274729
0.258025
0.242193
0.227224
0.213106
0.199825
0.187367
0.175718
0.164862
0.154783
0.145465
0.136892
0.129048
0.121919
0.115489
0.109745
0.104673
0.100263
0.096503
0.0933844
0.0908991
0.0890408
0.0878047
0.0871875
0.983201
0.949636
0.916168
0.882861
0.849778
0.81698
0.784528
0.75248
0.720891
0.689813
0.659297
0.629389
0.600134
0.57157
0.543734
0.516659
0.490374
0.464904
0.44027
0.416491
0.393579
0.371547
0.350402
0.330147
0.310785
0.292313
0.274728
0.258025
0.242193
0.227224
0.213105
0.199824
0.187367
0.175718
0.164861
0.154782
0.145464
0.136892
0.129048
0.121919
0.115489
0.109744
0.104673
0.100263
0.0965028
0.0933842
0.0908989
0.0890406
0.0878045
0.0871873
0.983201
0.949636
0.916168
0.882861
0.849778
0.81698
0.784528
0.75248
0.72089
0.689813
0.659296
0.629389
0.600133
0.571569
0.543734
0.516659
0.490374
0.464904
0.44027
0.41649
0.393579
0.371547
0.350401
0.330146
0.310784
0.292313
0.274728
0.258024
0.242193
0.227223
0.213105
0.199824
0.187366
0.175717
0.164861
0.154782
0.145464
0.136891
0.129048
0.121918
0.115488
0.109744
0.104673
0.100262
0.0965026
0.0933839
0.0908986
0.0890404
0.0878042
0.087187
0.983201
0.949636
0.916168
0.882861
0.849778
0.81698
0.784528
0.75248
0.72089
0.689812
0.659296
0.629389
0.600133
0.571569
0.543733
0.516659
0.490373
0.464903
0.440269
0.41649
0.393578
0.371546
0.350401
0.330146
0.310784
0.292312
0.274728
0.258024
0.242192
0.227223
0.213104
0.199823
0.187366
0.175717
0.164861
0.154782
0.145464
0.136891
0.129047
0.121918
0.115488
0.109744
0.104672
0.100262
0.0965023
0.0933836
0.0908984
0.0890401
0.087804
0.0871868
0.983201
0.949636
0.916168
0.882861
0.849777
0.81698
0.784528
0.752479
0.72089
0.689812
0.659296
0.629388
0.600133
0.571569
0.543733
0.516658
0.490373
0.464903
0.440269
0.416489
0.393578
0.371546
0.3504
0.330146
0.310783
0.292312
0.274727
0.258023
0.242192
0.227223
0.213104
0.199823
0.187365
0.175716
0.16486
0.154781
0.145463
0.136891
0.129047
0.121918
0.115488
0.109744
0.104672
0.100262
0.096502
0.0933834
0.0908981
0.0890399
0.0878037
0.0871865
0.983201
0.949636
0.916168
0.882861
0.849777
0.81698
0.784528
0.752479
0.72089
0.689812
0.659296
0.629388
0.600132
0.571568
0.543733
0.516658
0.490373
0.464902
0.440269
0.416489
0.393578
0.371545
0.3504
0.330145
0.310783
0.292311
0.274727
0.258023
0.242191
0.227222
0.213104
0.199823
0.187365
0.175716
0.16486
0.154781
0.145463
0.13689
0.129047
0.121917
0.115487
0.109743
0.104672
0.100262
0.0965017
0.0933831
0.0908979
0.0890396
0.0878035
0.0871863
0.983201
0.949636
0.916168
0.88286
0.849777
0.81698
0.784528
0.752479
0.720889
0.689811
0.659295
0.629388
0.600132
0.571568
0.543732
0.516657
0.490372
0.464902
0.440268
0.416488
0.393577
0.371545
0.350399
0.330145
0.310782
0.292311
0.274726
0.258022
0.242191
0.227222
0.213103
0.199822
0.187365
0.175716
0.16486
0.154781
0.145463
0.13689
0.129046
0.121917
0.115487
0.109743
0.104672
0.100261
0.0965014
0.0933828
0.0908976
0.0890393
0.0878032
0.0871861
0.983201
0.949636
0.916168
0.88286
0.849777
0.816979
0.784527
0.752479
0.720889
0.689811
0.659295
0.629387
0.600132
0.571568
0.543732
0.516657
0.490372
0.464902
0.440268
0.416488
0.393577
0.371545
0.350399
0.330144
0.310782
0.29231
0.274726
0.258022
0.24219
0.227221
0.213103
0.199822
0.187364
0.175715
0.164859
0.15478
0.145462
0.136889
0.129046
0.121917
0.115487
0.109743
0.104671
0.100261
0.0965012
0.0933826
0.0908973
0.0890391
0.087803
0.0871858
0.983201
0.949636
0.916168
0.88286
0.849777
0.816979
0.784527
0.752479
0.720889
0.689811
0.659295
0.629387
0.600131
0.571567
0.543732
0.516657
0.490372
0.464901
0.440267
0.416488
0.393576
0.371544
0.350399
0.330144
0.310781
0.29231
0.274725
0.258021
0.24219
0.227221
0.213102
0.199821
0.187364
0.175715
0.164859
0.15478
0.145462
0.136889
0.129046
0.121916
0.115486
0.109742
0.104671
0.100261
0.0965009
0.0933823
0.0908971
0.0890389
0.0878028
0.0871856
0.983201
0.949636
0.916168
0.88286
0.849777
0.816979
0.784527
0.752478
0.720889
0.689811
0.659295
0.629387
0.600131
0.571567
0.543731
0.516656
0.490371
0.464901
0.440267
0.416487
0.393576
0.371544
0.350398
0.330143
0.310781
0.29231
0.274725
0.258021
0.24219
0.22722
0.213102
0.199821
0.187363
0.175714
0.164858
0.154779
0.145462
0.136889
0.129045
0.121916
0.115486
0.109742
0.104671
0.10026
0.0965007
0.0933821
0.0908969
0.0890387
0.0878026
0.0871854
0.983201
0.949636
0.916167
0.88286
0.849777
0.816979
0.784527
0.752478
0.720889
0.689811
0.659294
0.629387
0.600131
0.571567
0.543731
0.516656
0.490371
0.464901
0.440267
0.416487
0.393576
0.371543
0.350398
0.330143
0.310781
0.292309
0.274725
0.258021
0.242189
0.22722
0.213102
0.199821
0.187363
0.175714
0.164858
0.154779
0.145461
0.136888
0.129045
0.121916
0.115486
0.109742
0.10467
0.10026
0.0965005
0.0933819
0.0908967
0.0890385
0.0878024
0.0871852
0.983201
0.949636
0.916167
0.88286
0.849777
0.816979
0.784527
0.752478
0.720888
0.68981
0.659294
0.629386
0.600131
0.571567
0.543731
0.516656
0.490371
0.4649
0.440266
0.416487
0.393575
0.371543
0.350397
0.330143
0.31078
0.292309
0.274724
0.25802
0.242189
0.22722
0.213101
0.19982
0.187363
0.175714
0.164858
0.154779
0.145461
0.136888
0.129045
0.121915
0.115486
0.109742
0.10467
0.10026
0.0965003
0.0933817
0.0908965
0.0890383
0.0878023
0.0871851
0.983201
0.949636
0.916167
0.88286
0.849777
0.816979
0.784527
0.752478
0.720888
0.68981
0.659294
0.629386
0.60013
0.571566
0.543731
0.516656
0.49037
0.4649
0.440266
0.416486
0.393575
0.371543
0.350397
0.330142
0.31078
0.292308
0.274724
0.25802
0.242189
0.227219
0.213101
0.19982
0.187362
0.175713
0.164857
0.154779
0.145461
0.136888
0.129045
0.121915
0.115485
0.109741
0.10467
0.10026
0.0965001
0.0933816
0.0908964
0.0890382
0.0878021
0.087185
0.983201
0.949636
0.916167
0.88286
0.849777
0.816979
0.784527
0.752478
0.720888
0.68981
0.659294
0.629386
0.60013
0.571566
0.54373
0.516655
0.49037
0.4649
0.440266
0.416486
0.393575
0.371543
0.350397
0.330142
0.31078
0.292308
0.274724
0.25802
0.242188
0.227219
0.213101
0.19982
0.187362
0.175713
0.164857
0.154778
0.145461
0.136888
0.129044
0.121915
0.115485
0.109741
0.10467
0.10026
0.0965
0.0933815
0.0908963
0.0890381
0.087802
0.0871849
0.983201
0.949636
0.916167
0.88286
0.849777
0.816979
0.784527
0.752478
0.720888
0.68981
0.659294
0.629386
0.60013
0.571566
0.54373
0.516655
0.49037
0.4649
0.440266
0.416486
0.393575
0.371542
0.350397
0.330142
0.31078
0.292308
0.274723
0.25802
0.242188
0.227219
0.2131
0.199819
0.187362
0.175713
0.164857
0.154778
0.14546
0.136888
0.129044
0.121915
0.115485
0.109741
0.10467
0.10026
0.0964999
0.0933814
0.0908962
0.089038
0.087802
0.0871848
0.983201
0.949636
0.916167
0.88286
0.849776
0.816979
0.784527
0.752478
0.720888
0.68981
0.659294
0.629386
0.60013
0.571566
0.54373
0.516655
0.49037
0.4649
0.440266
0.416486
0.393574
0.371542
0.350397
0.330142
0.310779
0.292308
0.274723
0.258019
0.242188
0.227219
0.2131
0.199819
0.187362
0.175713
0.164857
0.154778
0.14546
0.136887
0.129044
0.121915
0.115485
0.109741
0.10467
0.10026
0.0964998
0.0933813
0.0908962
0.089038
0.0878019
0.0871848
0.983201
0.949636
0.916167
0.88286
0.849776
0.816979
0.784526
0.752478
0.720888
0.68981
0.659294
0.629386
0.60013
0.571566
0.54373
0.516655
0.49037
0.4649
0.440266
0.416486
0.393574
0.371542
0.350396
0.330142
0.310779
0.292308
0.274723
0.258019
0.242188
0.227219
0.2131
0.199819
0.187362
0.175713
0.164857
0.154778
0.14546
0.136887
0.129044
0.121915
0.115485
0.109741
0.10467
0.10026
0.0964998
0.0933813
0.0908962
0.089038
0.0878019
0.0871848
0.983201
0.949636
0.916167
0.88286
0.849776
0.816979
0.784526
0.752478
0.720888
0.68981
0.659294
0.629386
0.60013
0.571566
0.54373
0.516655
0.49037
0.464899
0.440265
0.416486
0.393574
0.371542
0.350396
0.330142
0.310779
0.292308
0.274723
0.258019
0.242188
0.227219
0.2131
0.199819
0.187362
0.175713
0.164857
0.154778
0.14546
0.136887
0.129044
0.121915
0.115485
0.109741
0.10467
0.10026
0.0964998
0.0933813
0.0908962
0.089038
0.0878019
0.0871848
0.983201
0.949636
0.916167
0.88286
0.849776
0.816979
0.784526
0.752478
0.720888
0.68981
0.659294
0.629386
0.60013
0.571566
0.54373
0.516655
0.49037
0.464899
0.440265
0.416486
0.393574
0.371542
0.350396
0.330142
0.310779
0.292307
0.274723
0.258019
0.242188
0.227218
0.2131
0.199819
0.187361
0.175713
0.164857
0.154778
0.14546
0.136887
0.129044
0.121915
0.115485
0.109741
0.10467
0.10026
0.0964998
0.0933813
0.0908962
0.089038
0.087802
0.0871848
0.983201
0.949636
0.916167
0.88286
0.849776
0.816979
0.784526
0.752478
0.720888
0.68981
0.659294
0.629386
0.60013
0.571566
0.54373
0.516655
0.49037
0.464899
0.440265
0.416486
0.393574
0.371542
0.350396
0.330141
0.310779
0.292307
0.274723
0.258019
0.242188
0.227218
0.2131
0.199819
0.187361
0.175712
0.164857
0.154778
0.14546
0.136887
0.129044
0.121915
0.115485
0.109741
0.10467
0.10026
0.0964999
0.0933814
0.0908962
0.0890381
0.087802
0.0871849
)
;

boundaryField
{
    inlet
    {
        type            fixedValue;
        value           uniform 1;
    }
    outlet
    {
        type            zeroGradient;
    }
    lowerWall
    {
        type            zeroGradient;
    }
    upperWall
    {
        type            zeroGradient;
    }
    frontAndBack
    {
        type            empty;
    }
}


// ************************************************************************* //
