/*--------------------------------*- C++ -*----------------------------------*\
  =========                 |
  \\      /  F ield         | OpenFOAM: The Open Source CFD Toolbox
   \\    /   O peration     | Website:  https://openfoam.org
    \\  /    A nd           | Version:  12
     \\/     M anipulation  |
\*---------------------------------------------------------------------------*/
FoamFile
{
    format      ascii;
    class       volScalarField;
    location    "9";
    object      T;
}
// * * * * * * * * * * * * * * * * * * * * * * * * * * * * * * * * * * * * * //

dimensions      [0 0 0 1 0 0 0];

internalField   nonuniform List<scalar> 
1250
(
0.980361
0.941136
0.902068
0.86326
0.824814
0.786826
0.74939
0.712594
0.676522
0.641251
0.606851
0.573385
0.54091
0.509474
0.479119
0.449878
0.421778
0.394839
0.369072
0.344484
0.321075
0.298838
0.277762
0.257833
0.239028
0.221326
0.204698
0.189115
0.174545
0.160954
0.148309
0.136572
0.125709
0.115683
0.106458
0.0980004
0.0902752
0.0832501
0.0768938
0.0711768
0.0660714
0.0615521
0.0575956
0.0541807
0.0512889
0.048904
0.0470125
0.0456035
0.0446688
0.0442029
0.980361
0.941136
0.902068
0.86326
0.824814
0.786826
0.74939
0.712594
0.676522
0.641251
0.606851
0.573385
0.54091
0.509474
0.479119
0.449878
0.421778
0.394839
0.369072
0.344484
0.321075
0.298838
0.277762
0.257833
0.239028
0.221326
0.204698
0.189115
0.174545
0.160954
0.148309
0.136572
0.125709
0.115683
0.106458
0.0980003
0.0902752
0.0832501
0.0768937
0.0711767
0.0660714
0.0615521
0.0575956
0.0541807
0.0512889
0.0489039
0.0470123
0.0456032
0.0446684
0.0442027
0.980361
0.941136
0.902068
0.86326
0.824814
0.786826
0.749389
0.712594
0.676522
0.641251
0.606851
0.573385
0.54091
0.509474
0.479119
0.449878
0.421778
0.394839
0.369072
0.344484
0.321075
0.298838
0.277762
0.257833
0.239028
0.221326
0.204698
0.189115
0.174545
0.160954
0.148309
0.136572
0.125709
0.115683
0.106458
0.0980002
0.0902751
0.08325
0.0768936
0.0711766
0.0660713
0.061552
0.0575955
0.0541806
0.0512888
0.0489039
0.0470124
0.0456033
0.0446684
0.0442026
0.980361
0.941136
0.902068
0.86326
0.824814
0.786826
0.749389
0.712594
0.676522
0.641251
0.606851
0.573385
0.54091
0.509474
0.479119
0.449878
0.421778
0.394839
0.369072
0.344484
0.321074
0.298838
0.277762
0.257832
0.239028
0.221325
0.204697
0.189114
0.174544
0.160954
0.148308
0.136572
0.125709
0.115682
0.106458
0.0980001
0.0902749
0.0832498
0.0768935
0.0711765
0.0660711
0.0615519
0.0575953
0.0541805
0.0512886
0.0489037
0.0470123
0.0456033
0.0446684
0.0442024
0.980361
0.941136
0.902068
0.86326
0.824814
0.786825
0.749389
0.712594
0.676522
0.641251
0.60685
0.573385
0.540909
0.509474
0.479118
0.449878
0.421778
0.394838
0.369072
0.344484
0.321074
0.298837
0.277762
0.257832
0.239028
0.221325
0.204697
0.189114
0.174544
0.160954
0.148308
0.136572
0.125708
0.115682
0.106458
0.0979999
0.0902747
0.0832496
0.0768933
0.0711763
0.066071
0.0615517
0.0575952
0.0541804
0.0512885
0.0489036
0.0470121
0.0456031
0.0446683
0.0442023
0.980361
0.941136
0.902068
0.86326
0.824813
0.786825
0.749389
0.712594
0.676522
0.641251
0.60685
0.573384
0.540909
0.509473
0.479118
0.449877
0.421778
0.394838
0.369071
0.344483
0.321074
0.298837
0.277762
0.257832
0.239027
0.221325
0.204697
0.189114
0.174544
0.160954
0.148308
0.136571
0.125708
0.115682
0.106457
0.0979996
0.0902745
0.0832494
0.0768931
0.0711761
0.0660708
0.0615515
0.057595
0.0541802
0.0512884
0.0489035
0.047012
0.045603
0.0446682
0.0442022
0.980361
0.941136
0.902068
0.86326
0.824813
0.786825
0.749389
0.712593
0.676522
0.64125
0.60685
0.573384
0.540909
0.509473
0.479118
0.449877
0.421777
0.394838
0.369071
0.344483
0.321074
0.298837
0.277761
0.257831
0.239027
0.221325
0.204697
0.189114
0.174544
0.160953
0.148308
0.136571
0.125708
0.115682
0.106457
0.0979994
0.0902743
0.0832492
0.0768929
0.0711759
0.0660706
0.0615513
0.0575948
0.05418
0.0512882
0.0489034
0.0470118
0.0456028
0.0446681
0.0442021
0.980361
0.941136
0.902068
0.86326
0.824813
0.786825
0.749389
0.712593
0.676521
0.64125
0.60685
0.573384
0.540909
0.509473
0.479118
0.449877
0.421777
0.394838
0.369071
0.344483
0.321073
0.298836
0.277761
0.257831
0.239027
0.221324
0.204696
0.189113
0.174543
0.160953
0.148307
0.136571
0.125708
0.115681
0.106457
0.0979991
0.090274
0.0832489
0.0768926
0.0711757
0.0660704
0.0615512
0.0575947
0.0541798
0.0512881
0.0489032
0.0470117
0.0456027
0.0446679
0.044202
0.980361
0.941136
0.902068
0.86326
0.824813
0.786825
0.749389
0.712593
0.676521
0.64125
0.60685
0.573384
0.540909
0.509473
0.479117
0.449877
0.421777
0.394837
0.369071
0.344482
0.321073
0.298836
0.277761
0.257831
0.239027
0.221324
0.204696
0.189113
0.174543
0.160953
0.148307
0.136571
0.125707
0.115681
0.106457
0.0979988
0.0902737
0.0832487
0.0768924
0.0711754
0.0660701
0.061551
0.0575945
0.0541797
0.0512879
0.048903
0.0470116
0.0456026
0.0446678
0.0442019
0.980361
0.941136
0.902068
0.86326
0.824813
0.786825
0.749389
0.712593
0.676521
0.64125
0.606849
0.573384
0.540908
0.509472
0.479117
0.449876
0.421777
0.394837
0.36907
0.344482
0.321073
0.298836
0.27776
0.257831
0.239026
0.221324
0.204696
0.189113
0.174543
0.160952
0.148307
0.13657
0.125707
0.115681
0.106456
0.0979986
0.0902735
0.0832484
0.0768922
0.0711752
0.06607
0.0615508
0.0575943
0.0541795
0.0512878
0.0489029
0.0470114
0.0456024
0.0446677
0.0442017
0.980361
0.941136
0.902068
0.86326
0.824813
0.786825
0.749389
0.712593
0.676521
0.64125
0.606849
0.573383
0.540908
0.509472
0.479117
0.449876
0.421776
0.394837
0.36907
0.344482
0.321072
0.298835
0.27776
0.25783
0.239026
0.221323
0.204695
0.189112
0.174542
0.160952
0.148306
0.13657
0.125707
0.115681
0.106456
0.0979983
0.0902733
0.0832482
0.076892
0.071175
0.0660698
0.0615506
0.0575942
0.0541794
0.0512876
0.0489028
0.0470113
0.0456023
0.0446676
0.0442016
0.980361
0.941136
0.902068
0.86326
0.824813
0.786825
0.749388
0.712593
0.676521
0.641249
0.606849
0.573383
0.540908
0.509472
0.479117
0.449876
0.421776
0.394836
0.36907
0.344482
0.321072
0.298835
0.27776
0.25783
0.239026
0.221323
0.204695
0.189112
0.174542
0.160952
0.148306
0.13657
0.125706
0.11568
0.106456
0.0979981
0.090273
0.083248
0.0768918
0.0711749
0.0660696
0.0615505
0.057594
0.0541792
0.0512875
0.0489027
0.0470112
0.0456022
0.0446675
0.0442016
0.980361
0.941136
0.902068
0.86326
0.824813
0.786825
0.749388
0.712593
0.676521
0.641249
0.606849
0.573383
0.540908
0.509472
0.479117
0.449876
0.421776
0.394836
0.36907
0.344481
0.321072
0.298835
0.27776
0.25783
0.239025
0.221323
0.204695
0.189112
0.174542
0.160952
0.148306
0.136569
0.125706
0.11568
0.106456
0.0979979
0.0902729
0.0832478
0.0768916
0.0711747
0.0660695
0.0615503
0.0575939
0.0541791
0.0512874
0.0489026
0.0470112
0.0456022
0.0446675
0.0442015
0.980361
0.941136
0.902068
0.86326
0.824813
0.786825
0.749388
0.712593
0.676521
0.641249
0.606849
0.573383
0.540908
0.509472
0.479116
0.449876
0.421776
0.394836
0.369069
0.344481
0.321072
0.298835
0.277759
0.25783
0.239025
0.221323
0.204695
0.189112
0.174542
0.160951
0.148306
0.136569
0.125706
0.11568
0.106456
0.0979977
0.0902727
0.0832477
0.0768915
0.0711746
0.0660694
0.0615502
0.0575938
0.0541791
0.0512874
0.0489025
0.0470111
0.0456021
0.0446674
0.0442015
0.980361
0.941136
0.902068
0.86326
0.824813
0.786824
0.749388
0.712593
0.676521
0.641249
0.606849
0.573383
0.540908
0.509472
0.479116
0.449875
0.421776
0.394836
0.369069
0.344481
0.321072
0.298835
0.277759
0.257829
0.239025
0.221322
0.204694
0.189111
0.174542
0.160951
0.148306
0.136569
0.125706
0.11568
0.106455
0.0979976
0.0902726
0.0832476
0.0768914
0.0711745
0.0660693
0.0615502
0.0575938
0.054179
0.0512873
0.0489025
0.0470111
0.0456021
0.0446674
0.0442014
0.980361
0.941136
0.902068
0.86326
0.824813
0.786824
0.749388
0.712592
0.67652
0.641249
0.606849
0.573383
0.540907
0.509472
0.479116
0.449875
0.421776
0.394836
0.369069
0.344481
0.321072
0.298835
0.277759
0.257829
0.239025
0.221322
0.204694
0.189111
0.174541
0.160951
0.148305
0.136569
0.125706
0.11568
0.106455
0.0979975
0.0902725
0.0832475
0.0768913
0.0711744
0.0660692
0.0615501
0.0575937
0.054179
0.0512873
0.0489025
0.0470111
0.0456021
0.0446674
0.0442014
0.980361
0.941136
0.902068
0.86326
0.824813
0.786824
0.749388
0.712592
0.67652
0.641249
0.606849
0.573383
0.540907
0.509472
0.479116
0.449875
0.421775
0.394836
0.369069
0.344481
0.321071
0.298834
0.277759
0.257829
0.239025
0.221322
0.204694
0.189111
0.174541
0.160951
0.148305
0.136569
0.125706
0.11568
0.106455
0.0979974
0.0902724
0.0832474
0.0768913
0.0711744
0.0660692
0.0615501
0.0575937
0.054179
0.0512873
0.0489025
0.0470111
0.0456021
0.0446674
0.0442014
0.980361
0.941136
0.902068
0.86326
0.824813
0.786824
0.749388
0.712592
0.67652
0.641249
0.606849
0.573383
0.540907
0.509472
0.479116
0.449875
0.421775
0.394836
0.369069
0.344481
0.321071
0.298834
0.277759
0.257829
0.239025
0.221322
0.204694
0.189111
0.174541
0.160951
0.148305
0.136569
0.125706
0.11568
0.106455
0.0979974
0.0902724
0.0832474
0.0768912
0.0711744
0.0660692
0.0615501
0.0575937
0.054179
0.0512873
0.0489025
0.0470111
0.0456021
0.0446674
0.0442015
0.980361
0.941136
0.902068
0.86326
0.824813
0.786824
0.749388
0.712592
0.67652
0.641249
0.606849
0.573383
0.540907
0.509472
0.479116
0.449875
0.421775
0.394836
0.369069
0.344481
0.321071
0.298834
0.277759
0.257829
0.239025
0.221322
0.204694
0.189111
0.174541
0.160951
0.148305
0.136569
0.125705
0.115679
0.106455
0.0979973
0.0902723
0.0832474
0.0768912
0.0711743
0.0660692
0.0615501
0.0575937
0.054179
0.0512873
0.0489025
0.0470111
0.0456022
0.0446675
0.0442015
0.980361
0.941136
0.902068
0.86326
0.824813
0.786824
0.749388
0.712592
0.67652
0.641249
0.606849
0.573383
0.540908
0.509472
0.479116
0.449875
0.421775
0.394836
0.369069
0.344481
0.321071
0.298834
0.277759
0.257829
0.239025
0.221322
0.204694
0.189111
0.174541
0.160951
0.148305
0.136569
0.125705
0.115679
0.106455
0.0979973
0.0902723
0.0832473
0.0768912
0.0711743
0.0660692
0.0615501
0.0575937
0.054179
0.0512873
0.0489026
0.0470112
0.0456022
0.0446675
0.0442016
0.980361
0.941136
0.902068
0.86326
0.824813
0.786824
0.749388
0.712593
0.676521
0.641249
0.606849
0.573383
0.540908
0.509472
0.479116
0.449875
0.421776
0.394836
0.369069
0.344481
0.321071
0.298834
0.277759
0.257829
0.239025
0.221322
0.204694
0.189111
0.174541
0.160951
0.148305
0.136569
0.125705
0.115679
0.106455
0.0979973
0.0902723
0.0832473
0.0768912
0.0711744
0.0660692
0.0615501
0.0575938
0.0541791
0.0512874
0.0489026
0.0470112
0.0456023
0.0446676
0.0442016
0.980361
0.941136
0.902068
0.86326
0.824813
0.786825
0.749388
0.712593
0.676521
0.641249
0.606849
0.573383
0.540908
0.509472
0.479116
0.449875
0.421776
0.394836
0.369069
0.344481
0.321071
0.298834
0.277759
0.257829
0.239025
0.221322
0.204694
0.189111
0.174541
0.160951
0.148305
0.136569
0.125705
0.115679
0.106455
0.0979973
0.0902723
0.0832473
0.0768912
0.0711744
0.0660692
0.0615501
0.0575938
0.0541791
0.0512874
0.0489027
0.0470113
0.0456023
0.0446676
0.0442017
0.980361
0.941136
0.902068
0.86326
0.824813
0.786825
0.749388
0.712593
0.676521
0.641249
0.606849
0.573383
0.540908
0.509472
0.479116
0.449875
0.421776
0.394836
0.369069
0.344481
0.321071
0.298834
0.277759
0.257829
0.239025
0.221322
0.204694
0.189111
0.174541
0.160951
0.148305
0.136569
0.125705
0.115679
0.106455
0.0979973
0.0902723
0.0832473
0.0768912
0.0711744
0.0660692
0.0615502
0.0575938
0.0541791
0.0512875
0.0489027
0.0470113
0.0456024
0.0446677
0.0442017
0.980361
0.941136
0.902068
0.86326
0.824813
0.786825
0.749388
0.712593
0.676521
0.641249
0.606849
0.573383
0.540908
0.509472
0.479116
0.449876
0.421776
0.394836
0.369069
0.344481
0.321071
0.298834
0.277759
0.257829
0.239025
0.221322
0.204694
0.189111
0.174541
0.160951
0.148305
0.136569
0.125705
0.115679
0.106455
0.0979973
0.0902723
0.0832474
0.0768912
0.0711744
0.0660693
0.0615502
0.0575939
0.0541792
0.0512875
0.0489028
0.0470114
0.0456024
0.0446677
0.0442018
0.980361
0.941136
0.902068
0.86326
0.824813
0.786825
0.749388
0.712593
0.676521
0.641249
0.606849
0.573383
0.540908
0.509472
0.479116
0.449876
0.421776
0.394836
0.369069
0.344481
0.321071
0.298834
0.277759
0.257829
0.239025
0.221322
0.204694
0.189111
0.174541
0.160951
0.148305
0.136569
0.125705
0.115679
0.106455
0.0979973
0.0902723
0.0832474
0.0768912
0.0711744
0.0660693
0.0615502
0.0575939
0.0541792
0.0512876
0.0489028
0.0470114
0.0456025
0.0446678
0.0442018
)
;

boundaryField
{
    inlet
    {
        type            fixedValue;
        value           uniform 1;
    }
    outlet
    {
        type            zeroGradient;
    }
    lowerWall
    {
        type            zeroGradient;
    }
    upperWall
    {
        type            zeroGradient;
    }
    frontAndBack
    {
        type            empty;
    }
}


// ************************************************************************* //
