/*--------------------------------*- C++ -*----------------------------------*\
  =========                 |
  \\      /  F ield         | OpenFOAM: The Open Source CFD Toolbox
   \\    /   O peration     | Website:  https://openfoam.org
    \\  /    A nd           | Version:  12
     \\/     M anipulation  |
\*---------------------------------------------------------------------------*/
FoamFile
{
    format      ascii;
    class       volScalarField;
    location    "21";
    object      T;
}
// * * * * * * * * * * * * * * * * * * * * * * * * * * * * * * * * * * * * * //

dimensions      [0 0 0 1 0 0 0];

internalField   nonuniform List<scalar> 
1250
(
0.987714
0.963156
0.938641
0.914199
0.889857
0.865645
0.84159
0.817721
0.794064
0.770646
0.747493
0.724632
0.702086
0.679881
0.658039
0.636584
0.615537
0.59492
0.574752
0.555052
0.53584
0.517133
0.498947
0.481297
0.464199
0.447667
0.431713
0.41635
0.401588
0.387439
0.373911
0.361014
0.348756
0.337145
0.326186
0.315887
0.306253
0.297288
0.288998
0.281386
0.274456
0.268211
0.262654
0.257786
0.253611
0.250128
0.247341
0.24525
0.243855
0.243158
0.987714
0.963156
0.938641
0.914199
0.889857
0.865645
0.84159
0.817721
0.794064
0.770646
0.747493
0.724632
0.702086
0.679881
0.658039
0.636584
0.615537
0.59492
0.574752
0.555052
0.53584
0.517133
0.498947
0.481297
0.464199
0.447667
0.431713
0.41635
0.401588
0.387439
0.373911
0.361014
0.348756
0.337145
0.326186
0.315887
0.306253
0.297288
0.288998
0.281386
0.274456
0.268211
0.262654
0.257786
0.253611
0.250128
0.247341
0.24525
0.243855
0.243158
0.987714
0.963156
0.938641
0.914199
0.889857
0.865645
0.84159
0.817721
0.794064
0.770646
0.747493
0.724632
0.702086
0.679881
0.65804
0.636584
0.615537
0.59492
0.574752
0.555053
0.53584
0.517133
0.498947
0.481297
0.4642
0.447667
0.431713
0.41635
0.401588
0.387439
0.373911
0.361014
0.348757
0.337145
0.326186
0.315887
0.306253
0.297288
0.288998
0.281386
0.274456
0.268211
0.262654
0.257786
0.253611
0.250129
0.247341
0.24525
0.243855
0.243158
0.987714
0.963156
0.938641
0.914199
0.889857
0.865645
0.841591
0.817721
0.794064
0.770646
0.747493
0.724632
0.702087
0.679881
0.65804
0.636584
0.615538
0.59492
0.574752
0.555053
0.535841
0.517133
0.498947
0.481297
0.4642
0.447667
0.431713
0.41635
0.401588
0.387439
0.373911
0.361015
0.348757
0.337145
0.326187
0.315888
0.306253
0.297289
0.288999
0.281387
0.274457
0.268212
0.262654
0.257787
0.253611
0.250129
0.247341
0.24525
0.243856
0.243158
0.987714
0.963156
0.938641
0.914199
0.889857
0.865645
0.841591
0.817721
0.794064
0.770646
0.747494
0.724632
0.702087
0.679881
0.65804
0.636585
0.615538
0.59492
0.574752
0.555053
0.535841
0.517133
0.498947
0.481298
0.4642
0.447668
0.431714
0.41635
0.401589
0.387439
0.373912
0.361015
0.348757
0.337145
0.326187
0.315888
0.306253
0.297289
0.288999
0.281387
0.274457
0.268212
0.262654
0.257787
0.253611
0.250129
0.247342
0.24525
0.243856
0.243158
0.987714
0.963156
0.938641
0.914199
0.889857
0.865645
0.841591
0.817721
0.794064
0.770646
0.747494
0.724632
0.702087
0.679882
0.65804
0.636585
0.615538
0.59492
0.574752
0.555053
0.535841
0.517134
0.498947
0.481298
0.4642
0.447668
0.431714
0.416351
0.401589
0.38744
0.373912
0.361015
0.348757
0.337146
0.326187
0.315888
0.306254
0.297289
0.288999
0.281387
0.274457
0.268212
0.262655
0.257787
0.253611
0.250129
0.247342
0.245251
0.243856
0.243159
0.987714
0.963156
0.938641
0.914199
0.889857
0.865645
0.841591
0.817721
0.794064
0.770646
0.747494
0.724632
0.702087
0.679882
0.65804
0.636585
0.615538
0.594921
0.574753
0.555053
0.535841
0.517134
0.498948
0.481298
0.464201
0.447668
0.431714
0.416351
0.401589
0.38744
0.373913
0.361016
0.348758
0.337146
0.326188
0.315889
0.306254
0.29729
0.289
0.281388
0.274458
0.268213
0.262655
0.257787
0.253612
0.25013
0.247342
0.245251
0.243856
0.243159
0.987714
0.963156
0.938641
0.914199
0.889858
0.865645
0.841591
0.817721
0.794064
0.770646
0.747494
0.724633
0.702087
0.679882
0.65804
0.636585
0.615538
0.594921
0.574753
0.555054
0.535842
0.517134
0.498948
0.481299
0.464201
0.447669
0.431715
0.416351
0.40159
0.38744
0.373913
0.361016
0.348758
0.337147
0.326188
0.315889
0.306255
0.29729
0.289
0.281388
0.274458
0.268213
0.262655
0.257788
0.253612
0.25013
0.247343
0.245251
0.243857
0.243159
0.987714
0.963156
0.938641
0.914199
0.889858
0.865646
0.841591
0.817721
0.794064
0.770647
0.747494
0.724633
0.702087
0.679882
0.658041
0.636585
0.615539
0.594921
0.574753
0.555054
0.535842
0.517134
0.498948
0.481299
0.464201
0.447669
0.431715
0.416352
0.40159
0.387441
0.373913
0.361017
0.348759
0.337147
0.326189
0.315889
0.306255
0.297291
0.289
0.281389
0.274458
0.268213
0.262656
0.257788
0.253612
0.25013
0.247343
0.245252
0.243857
0.243159
0.987714
0.963156
0.938641
0.914199
0.889858
0.865646
0.841591
0.817722
0.794065
0.770647
0.747494
0.724633
0.702087
0.679882
0.658041
0.636586
0.615539
0.594921
0.574753
0.555054
0.535842
0.517135
0.498949
0.481299
0.464202
0.447669
0.431716
0.416352
0.401591
0.387441
0.373914
0.361017
0.348759
0.337148
0.326189
0.31589
0.306256
0.297291
0.289001
0.281389
0.274459
0.268214
0.262656
0.257789
0.253613
0.250131
0.247343
0.245252
0.243857
0.24316
0.987714
0.963156
0.938641
0.914199
0.889858
0.865646
0.841591
0.817722
0.794065
0.770647
0.747494
0.724633
0.702088
0.679882
0.658041
0.636586
0.615539
0.594922
0.574754
0.555054
0.535842
0.517135
0.498949
0.4813
0.464202
0.44767
0.431716
0.416353
0.401591
0.387442
0.373914
0.361017
0.34876
0.337148
0.326189
0.31589
0.306256
0.297291
0.289001
0.281389
0.274459
0.268214
0.262657
0.257789
0.253613
0.250131
0.247344
0.245252
0.243858
0.24316
0.987714
0.963156
0.938641
0.914199
0.889858
0.865646
0.841591
0.817722
0.794065
0.770647
0.747495
0.724633
0.702088
0.679883
0.658041
0.636586
0.615539
0.594922
0.574754
0.555055
0.535843
0.517135
0.498949
0.4813
0.464202
0.44767
0.431716
0.416353
0.401591
0.387442
0.373915
0.361018
0.34876
0.337148
0.32619
0.315891
0.306256
0.297292
0.289002
0.28139
0.27446
0.268214
0.262657
0.257789
0.253613
0.250131
0.247344
0.245253
0.243858
0.24316
0.987714
0.963156
0.938641
0.914199
0.889858
0.865646
0.841591
0.817722
0.794065
0.770647
0.747495
0.724633
0.702088
0.679883
0.658041
0.636586
0.615539
0.594922
0.574754
0.555055
0.535843
0.517136
0.49895
0.4813
0.464203
0.44767
0.431717
0.416353
0.401592
0.387442
0.373915
0.361018
0.34876
0.337149
0.32619
0.315891
0.306257
0.297292
0.289002
0.28139
0.27446
0.268215
0.262657
0.25779
0.253614
0.250132
0.247344
0.245253
0.243858
0.243161
0.987714
0.963156
0.938641
0.914199
0.889858
0.865646
0.841591
0.817722
0.794065
0.770647
0.747495
0.724633
0.702088
0.679883
0.658041
0.636586
0.61554
0.594922
0.574754
0.555055
0.535843
0.517136
0.49895
0.481301
0.464203
0.447671
0.431717
0.416354
0.401592
0.387443
0.373915
0.361019
0.348761
0.337149
0.326191
0.315891
0.306257
0.297292
0.289002
0.28139
0.27446
0.268215
0.262657
0.25779
0.253614
0.250132
0.247345
0.245253
0.243858
0.243161
0.987714
0.963156
0.938641
0.914199
0.889858
0.865646
0.841591
0.817722
0.794065
0.770647
0.747495
0.724634
0.702088
0.679883
0.658042
0.636587
0.61554
0.594922
0.574754
0.555055
0.535843
0.517136
0.49895
0.481301
0.464203
0.447671
0.431717
0.416354
0.401592
0.387443
0.373916
0.361019
0.348761
0.337149
0.326191
0.315892
0.306257
0.297293
0.289003
0.281391
0.27446
0.268215
0.262658
0.25779
0.253614
0.250132
0.247345
0.245253
0.243859
0.243161
0.987714
0.963156
0.938641
0.914199
0.889858
0.865646
0.841591
0.817722
0.794065
0.770647
0.747495
0.724634
0.702088
0.679883
0.658042
0.636587
0.61554
0.594923
0.574755
0.555055
0.535844
0.517136
0.49895
0.481301
0.464203
0.447671
0.431717
0.416354
0.401593
0.387443
0.373916
0.361019
0.348761
0.33715
0.326191
0.315892
0.306258
0.297293
0.289003
0.281391
0.274461
0.268216
0.262658
0.25779
0.253615
0.250132
0.247345
0.245254
0.243859
0.243161
0.987714
0.963156
0.938641
0.914199
0.889858
0.865646
0.841592
0.817722
0.794065
0.770647
0.747495
0.724634
0.702088
0.679883
0.658042
0.636587
0.61554
0.594923
0.574755
0.555056
0.535844
0.517136
0.49895
0.481301
0.464204
0.447671
0.431718
0.416354
0.401593
0.387444
0.373916
0.361019
0.348761
0.33715
0.326191
0.315892
0.306258
0.297293
0.289003
0.281391
0.274461
0.268216
0.262658
0.25779
0.253615
0.250132
0.247345
0.245254
0.243859
0.243162
0.987714
0.963156
0.938641
0.914199
0.889858
0.865646
0.841592
0.817722
0.794065
0.770647
0.747495
0.724634
0.702088
0.679883
0.658042
0.636587
0.61554
0.594923
0.574755
0.555056
0.535844
0.517137
0.498951
0.481301
0.464204
0.447672
0.431718
0.416355
0.401593
0.387444
0.373916
0.361019
0.348762
0.33715
0.326191
0.315892
0.306258
0.297293
0.289003
0.281391
0.274461
0.268216
0.262658
0.257791
0.253615
0.250133
0.247345
0.245254
0.243859
0.243162
0.987714
0.963156
0.938641
0.914199
0.889858
0.865646
0.841592
0.817722
0.794065
0.770647
0.747495
0.724634
0.702088
0.679883
0.658042
0.636587
0.61554
0.594923
0.574755
0.555056
0.535844
0.517137
0.498951
0.481301
0.464204
0.447672
0.431718
0.416355
0.401593
0.387444
0.373916
0.36102
0.348762
0.33715
0.326192
0.315892
0.306258
0.297293
0.289003
0.281391
0.274461
0.268216
0.262658
0.257791
0.253615
0.250133
0.247345
0.245254
0.243859
0.243162
0.987714
0.963156
0.938641
0.914199
0.889858
0.865646
0.841592
0.817722
0.794065
0.770647
0.747495
0.724634
0.702088
0.679883
0.658042
0.636587
0.61554
0.594923
0.574755
0.555056
0.535844
0.517137
0.498951
0.481302
0.464204
0.447672
0.431718
0.416355
0.401593
0.387444
0.373916
0.36102
0.348762
0.33715
0.326192
0.315892
0.306258
0.297294
0.289003
0.281391
0.274461
0.268216
0.262658
0.257791
0.253615
0.250133
0.247345
0.245254
0.243859
0.243162
0.987714
0.963156
0.938641
0.914199
0.889858
0.865646
0.841592
0.817722
0.794065
0.770647
0.747495
0.724634
0.702089
0.679883
0.658042
0.636587
0.61554
0.594923
0.574755
0.555056
0.535844
0.517137
0.498951
0.481302
0.464204
0.447672
0.431718
0.416355
0.401593
0.387444
0.373917
0.36102
0.348762
0.33715
0.326192
0.315893
0.306258
0.297294
0.289003
0.281391
0.274461
0.268216
0.262659
0.257791
0.253615
0.250133
0.247346
0.245254
0.243859
0.243162
0.987714
0.963156
0.938641
0.914199
0.889858
0.865646
0.841592
0.817722
0.794065
0.770647
0.747495
0.724634
0.702089
0.679883
0.658042
0.636587
0.61554
0.594923
0.574755
0.555056
0.535844
0.517137
0.498951
0.481302
0.464204
0.447672
0.431718
0.416355
0.401593
0.387444
0.373917
0.36102
0.348762
0.33715
0.326192
0.315893
0.306258
0.297294
0.289003
0.281391
0.274461
0.268216
0.262659
0.257791
0.253615
0.250133
0.247346
0.245254
0.243859
0.243162
0.987714
0.963156
0.938641
0.914199
0.889858
0.865646
0.841592
0.817722
0.794065
0.770647
0.747495
0.724634
0.702089
0.679883
0.658042
0.636587
0.61554
0.594923
0.574755
0.555056
0.535844
0.517137
0.498951
0.481302
0.464204
0.447672
0.431718
0.416355
0.401593
0.387444
0.373917
0.36102
0.348762
0.33715
0.326192
0.315893
0.306258
0.297294
0.289003
0.281391
0.274461
0.268216
0.262659
0.257791
0.253615
0.250133
0.247346
0.245254
0.243859
0.243162
0.987714
0.963156
0.938641
0.914199
0.889858
0.865646
0.841592
0.817722
0.794065
0.770647
0.747495
0.724634
0.702089
0.679883
0.658042
0.636587
0.61554
0.594923
0.574755
0.555056
0.535844
0.517137
0.498951
0.481302
0.464204
0.447672
0.431718
0.416355
0.401593
0.387444
0.373917
0.36102
0.348762
0.33715
0.326192
0.315893
0.306258
0.297294
0.289003
0.281391
0.274461
0.268216
0.262659
0.257791
0.253615
0.250133
0.247346
0.245254
0.24386
0.243162
0.987714
0.963156
0.938641
0.914199
0.889858
0.865646
0.841592
0.817722
0.794065
0.770647
0.747495
0.724634
0.702089
0.679883
0.658042
0.636587
0.61554
0.594923
0.574755
0.555056
0.535844
0.517137
0.498951
0.481302
0.464204
0.447672
0.431718
0.416355
0.401593
0.387444
0.373917
0.36102
0.348762
0.33715
0.326192
0.315893
0.306258
0.297294
0.289003
0.281391
0.274461
0.268216
0.262659
0.257791
0.253615
0.250133
0.247346
0.245254
0.243859
0.243162
)
;

boundaryField
{
    inlet
    {
        type            fixedValue;
        value           uniform 1;
    }
    outlet
    {
        type            zeroGradient;
    }
    lowerWall
    {
        type            zeroGradient;
    }
    upperWall
    {
        type            zeroGradient;
    }
    frontAndBack
    {
        type            empty;
    }
}


// ************************************************************************* //
