/*--------------------------------*- C++ -*----------------------------------*\
  =========                 |
  \\      /  F ield         | OpenFOAM: The Open Source CFD Toolbox
   \\    /   O peration     | Website:  https://openfoam.org
    \\  /    A nd           | Version:  12
     \\/     M anipulation  |
\*---------------------------------------------------------------------------*/
FoamFile
{
    format      ascii;
    class       volScalarField;
    location    "11";
    object      T;
}
// * * * * * * * * * * * * * * * * * * * * * * * * * * * * * * * * * * * * * //

dimensions      [0 0 0 1 0 0 0];

internalField   nonuniform List<scalar> 
1250
(
0.982391
0.947212
0.912144
0.877262
0.842637
0.808342
0.774443
0.741007
0.708097
0.675772
0.644086
0.613093
0.582839
0.553366
0.524715
0.496917
0.470002
0.443996
0.418917
0.394781
0.371601
0.349382
0.328128
0.307839
0.288511
0.270138
0.252709
0.236213
0.220634
0.205957
0.192165
0.179236
0.167152
0.155892
0.145434
0.135756
0.126838
0.118658
0.111196
0.104433
0.0983485
0.0929262
0.0881496
0.0840038
0.0804757
0.0775536
0.0752279
0.0734907
0.0723359
0.0717596
0.982391
0.947212
0.912144
0.877262
0.842637
0.808342
0.774443
0.741007
0.708097
0.675772
0.644086
0.613093
0.582839
0.553366
0.524715
0.496917
0.470002
0.443996
0.418917
0.394781
0.371601
0.349382
0.328128
0.307839
0.288511
0.270138
0.252709
0.236213
0.220634
0.205957
0.192164
0.179236
0.167152
0.155892
0.145434
0.135756
0.126838
0.118658
0.111196
0.104433
0.0983485
0.0929262
0.0881495
0.0840038
0.0804756
0.0775536
0.0752278
0.0734905
0.0723357
0.0717594
0.982391
0.947212
0.912144
0.877262
0.842637
0.808342
0.774443
0.741007
0.708097
0.675771
0.644086
0.613093
0.582839
0.553366
0.524714
0.496917
0.470002
0.443996
0.418917
0.394781
0.3716
0.349382
0.328128
0.307839
0.288511
0.270138
0.252709
0.236212
0.220634
0.205957
0.192164
0.179236
0.167152
0.155892
0.145434
0.135756
0.126838
0.118658
0.111196
0.104433
0.0983484
0.0929261
0.0881494
0.0840037
0.0804756
0.0775535
0.0752278
0.0734905
0.0723356
0.0717593
0.982391
0.947212
0.912144
0.877262
0.842637
0.808342
0.774443
0.741007
0.708097
0.675771
0.644086
0.613093
0.582838
0.553366
0.524714
0.496917
0.470002
0.443995
0.418917
0.394781
0.3716
0.349381
0.328128
0.307839
0.288511
0.270138
0.252709
0.236212
0.220634
0.205957
0.192164
0.179236
0.167152
0.155892
0.145433
0.135756
0.126838
0.118658
0.111196
0.104432
0.0983482
0.0929259
0.0881493
0.0840035
0.0804754
0.0775534
0.0752277
0.0734904
0.0723356
0.0717592
0.982391
0.947212
0.912144
0.877262
0.842637
0.808342
0.774443
0.741007
0.708097
0.675771
0.644086
0.613092
0.582838
0.553366
0.524714
0.496916
0.470002
0.443995
0.418916
0.394781
0.3716
0.349381
0.328127
0.307839
0.288511
0.270137
0.252708
0.236212
0.220634
0.205957
0.192164
0.179236
0.167152
0.155891
0.145433
0.135756
0.126838
0.118658
0.111196
0.104432
0.098348
0.0929258
0.0881492
0.0840034
0.0804753
0.0775532
0.0752275
0.0734903
0.0723354
0.071759
0.982391
0.947212
0.912144
0.877262
0.842637
0.808341
0.774443
0.741007
0.708097
0.675771
0.644086
0.613092
0.582838
0.553366
0.524714
0.496916
0.470002
0.443995
0.418916
0.394781
0.3716
0.349381
0.328127
0.307838
0.288511
0.270137
0.252708
0.236212
0.220633
0.205957
0.192164
0.179235
0.167151
0.155891
0.145433
0.135755
0.126837
0.118658
0.111196
0.104432
0.0983478
0.0929255
0.0881489
0.0840032
0.0804751
0.0775531
0.0752273
0.0734901
0.0723353
0.0717589
0.982391
0.947212
0.912144
0.877261
0.842637
0.808341
0.774443
0.741007
0.708096
0.675771
0.644085
0.613092
0.582838
0.553365
0.524714
0.496916
0.470001
0.443995
0.418916
0.39478
0.371599
0.349381
0.328127
0.307838
0.28851
0.270137
0.252708
0.236211
0.220633
0.205956
0.192163
0.179235
0.167151
0.155891
0.145433
0.135755
0.126837
0.118657
0.111195
0.104432
0.0983476
0.0929253
0.0881487
0.084003
0.0804749
0.0775529
0.0752272
0.0734899
0.0723351
0.0717587
0.982391
0.947212
0.912144
0.877261
0.842637
0.808341
0.774442
0.741007
0.708096
0.675771
0.644085
0.613092
0.582837
0.553365
0.524713
0.496915
0.470001
0.443994
0.418915
0.39478
0.371599
0.34938
0.328126
0.307838
0.28851
0.270136
0.252707
0.236211
0.220633
0.205956
0.192163
0.179235
0.167151
0.15589
0.145432
0.135755
0.126837
0.118657
0.111195
0.104432
0.0983473
0.0929251
0.0881485
0.0840027
0.0804747
0.0775527
0.075227
0.0734897
0.0723349
0.0717585
0.982391
0.947212
0.912144
0.877261
0.842637
0.808341
0.774442
0.741006
0.708096
0.67577
0.644085
0.613092
0.582837
0.553365
0.524713
0.496915
0.470001
0.443994
0.418915
0.39478
0.371599
0.34938
0.328126
0.307837
0.288509
0.270136
0.252707
0.236211
0.220632
0.205956
0.192163
0.179234
0.16715
0.15589
0.145432
0.135755
0.126836
0.118657
0.111195
0.104431
0.0983471
0.0929248
0.0881482
0.0840025
0.0804744
0.0775524
0.0752268
0.0734895
0.0723347
0.0717583
0.982391
0.947212
0.912144
0.877261
0.842637
0.808341
0.774442
0.741006
0.708096
0.67577
0.644085
0.613091
0.582837
0.553365
0.524713
0.496915
0.47
0.443994
0.418915
0.394779
0.371598
0.349379
0.328126
0.307837
0.288509
0.270136
0.252707
0.23621
0.220632
0.205955
0.192162
0.179234
0.16715
0.15589
0.145432
0.135754
0.126836
0.118656
0.111195
0.104431
0.0983468
0.0929246
0.088148
0.0840023
0.0804742
0.0775522
0.0752266
0.0734893
0.0723345
0.0717582
0.982391
0.947212
0.912144
0.877261
0.842637
0.808341
0.774442
0.741006
0.708096
0.67577
0.644085
0.613091
0.582837
0.553364
0.524712
0.496915
0.47
0.443993
0.418914
0.394779
0.371598
0.349379
0.328125
0.307836
0.288509
0.270135
0.252706
0.23621
0.220632
0.205955
0.192162
0.179234
0.16715
0.155889
0.145431
0.135754
0.126836
0.118656
0.111194
0.104431
0.0983466
0.0929243
0.0881478
0.0840021
0.080474
0.077552
0.0752264
0.0734891
0.0723343
0.071758
0.982391
0.947212
0.912144
0.877261
0.842637
0.808341
0.774442
0.741006
0.708095
0.67577
0.644084
0.613091
0.582836
0.553364
0.524712
0.496914
0.47
0.443993
0.418914
0.394779
0.371598
0.349379
0.328125
0.307836
0.288508
0.270135
0.252706
0.23621
0.220631
0.205954
0.192162
0.179233
0.167149
0.155889
0.145431
0.135754
0.126836
0.118656
0.111194
0.10443
0.0983463
0.0929241
0.0881476
0.0840019
0.0804738
0.0775518
0.0752262
0.073489
0.0723342
0.0717578
0.982391
0.947211
0.912143
0.877261
0.842636
0.808341
0.774442
0.741006
0.708095
0.675769
0.644084
0.613091
0.582836
0.553364
0.524712
0.496914
0.469999
0.443993
0.418914
0.394778
0.371597
0.349378
0.328125
0.307836
0.288508
0.270135
0.252706
0.236209
0.220631
0.205954
0.192161
0.179233
0.167149
0.155889
0.145431
0.135753
0.126835
0.118656
0.111194
0.10443
0.0983461
0.0929239
0.0881473
0.0840017
0.0804736
0.0775517
0.075226
0.0734888
0.072334
0.0717577
0.982391
0.947211
0.912143
0.877261
0.842636
0.80834
0.774442
0.741006
0.708095
0.675769
0.644084
0.61309
0.582836
0.553364
0.524712
0.496914
0.469999
0.443992
0.418913
0.394778
0.371597
0.349378
0.328124
0.307835
0.288508
0.270134
0.252705
0.236209
0.220631
0.205954
0.192161
0.179233
0.167149
0.155889
0.14543
0.135753
0.126835
0.118655
0.111194
0.10443
0.0983459
0.0929237
0.0881472
0.0840015
0.0804735
0.0775515
0.0752259
0.0734887
0.0723339
0.0717575
0.982391
0.947211
0.912143
0.877261
0.842636
0.80834
0.774441
0.741005
0.708095
0.675769
0.644084
0.61309
0.582836
0.553363
0.524711
0.496913
0.469999
0.443992
0.418913
0.394778
0.371597
0.349378
0.328124
0.307835
0.288507
0.270134
0.252705
0.236209
0.22063
0.205954
0.192161
0.179232
0.167149
0.155888
0.14543
0.135753
0.126835
0.118655
0.111193
0.10443
0.0983457
0.0929235
0.088147
0.0840013
0.0804733
0.0775514
0.0752257
0.0734885
0.0723338
0.0717574
0.982391
0.947211
0.912143
0.877261
0.842636
0.80834
0.774441
0.741005
0.708095
0.675769
0.644084
0.61309
0.582836
0.553363
0.524711
0.496913
0.469999
0.443992
0.418913
0.394777
0.371597
0.349378
0.328124
0.307835
0.288507
0.270134
0.252705
0.236208
0.22063
0.205953
0.19216
0.179232
0.167148
0.155888
0.14543
0.135753
0.126835
0.118655
0.111193
0.10443
0.0983455
0.0929234
0.0881469
0.0840012
0.0804732
0.0775513
0.0752256
0.0734884
0.0723337
0.0717573
0.982391
0.947211
0.912143
0.877261
0.842636
0.80834
0.774441
0.741005
0.708095
0.675769
0.644083
0.61309
0.582835
0.553363
0.524711
0.496913
0.469998
0.443992
0.418913
0.394777
0.371596
0.349377
0.328124
0.307835
0.288507
0.270133
0.252705
0.236208
0.22063
0.205953
0.19216
0.179232
0.167148
0.155888
0.14543
0.135752
0.126834
0.118655
0.111193
0.104429
0.0983454
0.0929232
0.0881468
0.0840011
0.0804731
0.0775512
0.0752256
0.0734884
0.0723336
0.0717572
0.982391
0.947211
0.912143
0.877261
0.842636
0.80834
0.774441
0.741005
0.708095
0.675769
0.644083
0.61309
0.582835
0.553363
0.524711
0.496913
0.469998
0.443992
0.418913
0.394777
0.371596
0.349377
0.328123
0.307834
0.288507
0.270133
0.252704
0.236208
0.22063
0.205953
0.19216
0.179232
0.167148
0.155888
0.14543
0.135752
0.126834
0.118655
0.111193
0.104429
0.0983453
0.0929231
0.0881467
0.084001
0.080473
0.0775511
0.0752255
0.0734883
0.0723335
0.0717572
0.982391
0.947211
0.912143
0.877261
0.842636
0.80834
0.774441
0.741005
0.708095
0.675769
0.644083
0.61309
0.582835
0.553363
0.524711
0.496913
0.469998
0.443991
0.418912
0.394777
0.371596
0.349377
0.328123
0.307834
0.288507
0.270133
0.252704
0.236208
0.220629
0.205953
0.19216
0.179232
0.167148
0.155888
0.145429
0.135752
0.126834
0.118655
0.111193
0.104429
0.0983452
0.0929231
0.0881466
0.084001
0.080473
0.077551
0.0752254
0.0734882
0.0723335
0.0717571
0.982391
0.947211
0.912143
0.877261
0.842636
0.80834
0.774441
0.741005
0.708094
0.675769
0.644083
0.61309
0.582835
0.553363
0.524711
0.496913
0.469998
0.443991
0.418912
0.394777
0.371596
0.349377
0.328123
0.307834
0.288506
0.270133
0.252704
0.236208
0.220629
0.205953
0.19216
0.179231
0.167148
0.155887
0.145429
0.135752
0.126834
0.118654
0.111193
0.104429
0.0983451
0.092923
0.0881465
0.0840009
0.0804729
0.077551
0.0752254
0.0734882
0.0723335
0.0717571
0.982391
0.947211
0.912143
0.877261
0.842636
0.80834
0.774441
0.741005
0.708094
0.675769
0.644083
0.61309
0.582835
0.553363
0.524711
0.496913
0.469998
0.443991
0.418912
0.394777
0.371596
0.349377
0.328123
0.307834
0.288506
0.270133
0.252704
0.236207
0.220629
0.205952
0.19216
0.179231
0.167148
0.155887
0.145429
0.135752
0.126834
0.118654
0.111193
0.104429
0.0983451
0.092923
0.0881465
0.0840009
0.0804729
0.077551
0.0752254
0.0734882
0.0723335
0.0717571
0.982391
0.947211
0.912143
0.877261
0.842636
0.80834
0.774441
0.741005
0.708094
0.675769
0.644083
0.61309
0.582835
0.553363
0.524711
0.496913
0.469998
0.443991
0.418912
0.394777
0.371596
0.349377
0.328123
0.307834
0.288506
0.270133
0.252704
0.236207
0.220629
0.205952
0.192159
0.179231
0.167147
0.155887
0.145429
0.135752
0.126834
0.118654
0.111193
0.104429
0.098345
0.0929229
0.0881465
0.0840009
0.0804729
0.077551
0.0752254
0.0734882
0.0723335
0.0717571
0.982391
0.947211
0.912143
0.877261
0.842636
0.80834
0.774441
0.741005
0.708094
0.675769
0.644083
0.61309
0.582835
0.553363
0.524711
0.496913
0.469998
0.443991
0.418912
0.394777
0.371596
0.349377
0.328123
0.307834
0.288506
0.270133
0.252704
0.236207
0.220629
0.205952
0.192159
0.179231
0.167147
0.155887
0.145429
0.135752
0.126834
0.118654
0.111193
0.104429
0.098345
0.0929229
0.0881465
0.0840009
0.0804729
0.077551
0.0752254
0.0734882
0.0723335
0.0717571
0.982391
0.947211
0.912143
0.877261
0.842636
0.80834
0.774441
0.741005
0.708094
0.675769
0.644083
0.61309
0.582835
0.553363
0.524711
0.496913
0.469998
0.443991
0.418912
0.394777
0.371596
0.349377
0.328123
0.307834
0.288506
0.270133
0.252704
0.236207
0.220629
0.205952
0.192159
0.179231
0.167147
0.155887
0.145429
0.135752
0.126834
0.118654
0.111193
0.104429
0.098345
0.0929229
0.0881465
0.0840009
0.0804729
0.077551
0.0752254
0.0734883
0.0723335
0.0717572
0.982391
0.947211
0.912143
0.877261
0.842636
0.80834
0.774441
0.741005
0.708094
0.675769
0.644083
0.61309
0.582835
0.553363
0.524711
0.496913
0.469998
0.443991
0.418912
0.394777
0.371596
0.349377
0.328123
0.307834
0.288506
0.270133
0.252704
0.236207
0.220629
0.205952
0.192159
0.179231
0.167147
0.155887
0.145429
0.135752
0.126834
0.118654
0.111193
0.104429
0.0983451
0.092923
0.0881465
0.0840009
0.080473
0.0775511
0.0752255
0.0734883
0.0723336
0.0717572
)
;

boundaryField
{
    inlet
    {
        type            fixedValue;
        value           uniform 1;
    }
    outlet
    {
        type            zeroGradient;
    }
    lowerWall
    {
        type            zeroGradient;
    }
    upperWall
    {
        type            zeroGradient;
    }
    frontAndBack
    {
        type            empty;
    }
}


// ************************************************************************* //
