/*--------------------------------*- C++ -*----------------------------------*\
  =========                 |
  \\      /  F ield         | OpenFOAM: The Open Source CFD Toolbox
   \\    /   O peration     | Website:  https://openfoam.org
    \\  /    A nd           | Version:  12
     \\/     M anipulation  |
\*---------------------------------------------------------------------------*/
FoamFile
{
    format      ascii;
    class       volScalarField;
    location    "7";
    object      T;
}
// * * * * * * * * * * * * * * * * * * * * * * * * * * * * * * * * * * * * * //

dimensions      [0 0 0 1 0 0 0];

internalField   nonuniform List<scalar> 
1250
(
0.977433
0.93238
0.887574
0.843172
0.799331
0.756198
0.713911
0.672598
0.632376
0.593349
0.555606
0.519224
0.484267
0.450784
0.41881
0.388369
0.359472
0.332118
0.306298
0.281991
0.259169
0.237798
0.217835
0.199234
0.181945
0.165913
0.151083
0.137395
0.124793
0.113217
0.102608
0.0929109
0.0840684
0.0760268
0.0687345
0.062142
0.0562026
0.0508723
0.0461102
0.0418782
0.0381416
0.0348686
0.0320308
0.0296029
0.0275627
0.0258913
0.0245731
0.0235955
0.0229491
0.0226276
0.977433
0.93238
0.887574
0.843172
0.799331
0.756198
0.713911
0.672598
0.632376
0.593349
0.555606
0.519224
0.484267
0.450784
0.41881
0.388369
0.359472
0.332118
0.306298
0.281991
0.259169
0.237798
0.217835
0.199234
0.181945
0.165913
0.151083
0.137395
0.124793
0.113217
0.102608
0.0929109
0.0840684
0.0760268
0.0687345
0.062142
0.0562026
0.0508723
0.0461101
0.0418781
0.0381415
0.0348685
0.0320307
0.0296028
0.0275626
0.0258912
0.0245729
0.0235951
0.0229486
0.0226273
0.977433
0.93238
0.887574
0.843172
0.799331
0.756198
0.713911
0.672598
0.632376
0.593349
0.555606
0.519224
0.484267
0.450784
0.41881
0.388369
0.359471
0.332118
0.306298
0.281991
0.259169
0.237798
0.217835
0.199234
0.181945
0.165913
0.151082
0.137395
0.124793
0.113217
0.102608
0.0929108
0.0840683
0.0760267
0.0687344
0.0621419
0.0562025
0.0508722
0.04611
0.0418781
0.0381414
0.0348685
0.0320306
0.0296027
0.0275626
0.0258913
0.0245731
0.0235953
0.0229486
0.0226271
0.977433
0.93238
0.887574
0.843172
0.799331
0.756198
0.713911
0.672598
0.632376
0.593348
0.555605
0.519224
0.484267
0.450783
0.41881
0.388369
0.359471
0.332118
0.306297
0.281991
0.259169
0.237798
0.217835
0.199234
0.181945
0.165913
0.151082
0.137395
0.124793
0.113216
0.102608
0.0929107
0.0840681
0.0760266
0.0687343
0.0621418
0.0562024
0.0508721
0.0461099
0.0418779
0.0381413
0.0348684
0.0320306
0.0296026
0.0275624
0.0258911
0.0245729
0.0235953
0.0229486
0.022627
0.977433
0.93238
0.887573
0.843172
0.799331
0.756198
0.713911
0.672598
0.632376
0.593348
0.555605
0.519224
0.484267
0.450783
0.418809
0.388368
0.359471
0.332118
0.306297
0.28199
0.259169
0.237797
0.217835
0.199234
0.181945
0.165913
0.151082
0.137395
0.124792
0.113216
0.102608
0.0929105
0.084068
0.0760264
0.0687341
0.0621416
0.0562022
0.0508719
0.0461098
0.0418778
0.0381412
0.0348683
0.0320305
0.0296026
0.0275623
0.025891
0.0245728
0.0235952
0.0229486
0.022627
0.977433
0.93238
0.887573
0.843172
0.799331
0.756198
0.713911
0.672598
0.632376
0.593348
0.555605
0.519224
0.484267
0.450783
0.418809
0.388368
0.359471
0.332117
0.306297
0.28199
0.259169
0.237797
0.217834
0.199234
0.181944
0.165912
0.151082
0.137395
0.124792
0.113216
0.102608
0.0929103
0.0840677
0.0760262
0.0687339
0.0621414
0.056202
0.0508717
0.0461096
0.0418777
0.0381411
0.0348681
0.0320303
0.0296024
0.0275623
0.0258909
0.0245727
0.0235951
0.0229486
0.0226269
0.977433
0.93238
0.887573
0.843172
0.799331
0.756198
0.713911
0.672598
0.632376
0.593348
0.555605
0.519224
0.484266
0.450783
0.418809
0.388368
0.359471
0.332117
0.306297
0.28199
0.259168
0.237797
0.217834
0.199233
0.181944
0.165912
0.151082
0.137394
0.124792
0.113216
0.102608
0.09291
0.0840675
0.076026
0.0687337
0.0621412
0.0562018
0.0508716
0.0461094
0.0418775
0.0381409
0.034868
0.0320302
0.0296023
0.0275622
0.0258909
0.0245726
0.023595
0.0229485
0.0226268
0.977433
0.93238
0.887573
0.843172
0.799331
0.756198
0.713911
0.672598
0.632376
0.593348
0.555605
0.519223
0.484266
0.450783
0.418809
0.388368
0.359471
0.332117
0.306297
0.28199
0.259168
0.237797
0.217834
0.199233
0.181944
0.165912
0.151081
0.137394
0.124792
0.113215
0.102607
0.0929098
0.0840673
0.0760258
0.0687335
0.062141
0.0562016
0.0508714
0.0461093
0.0418773
0.0381408
0.0348679
0.0320301
0.0296022
0.027562
0.0258908
0.0245726
0.0235949
0.0229484
0.0226268
0.977433
0.93238
0.887573
0.843172
0.799331
0.756198
0.713911
0.672598
0.632376
0.593348
0.555605
0.519223
0.484266
0.450783
0.418809
0.388368
0.35947
0.332117
0.306296
0.281989
0.259168
0.237796
0.217834
0.199233
0.181944
0.165912
0.151081
0.137394
0.124791
0.113215
0.102607
0.0929095
0.084067
0.0760255
0.0687333
0.0621408
0.0562014
0.0508712
0.0461091
0.0418772
0.0381406
0.0348677
0.03203
0.0296021
0.027562
0.0258907
0.0245725
0.0235949
0.0229484
0.0226267
0.977433
0.93238
0.887573
0.843172
0.799331
0.756198
0.713911
0.672598
0.632376
0.593348
0.555605
0.519223
0.484266
0.450782
0.418809
0.388367
0.35947
0.332117
0.306296
0.281989
0.259168
0.237796
0.217833
0.199233
0.181943
0.165911
0.151081
0.137394
0.124791
0.113215
0.102607
0.0929093
0.0840668
0.0760253
0.068733
0.0621406
0.0562012
0.050871
0.0461089
0.041877
0.0381405
0.0348676
0.0320299
0.029602
0.0275619
0.0258906
0.0245725
0.0235948
0.0229483
0.0226267
0.977433
0.93238
0.887573
0.843172
0.799331
0.756198
0.71391
0.672598
0.632375
0.593348
0.555605
0.519223
0.484266
0.450782
0.418808
0.388367
0.35947
0.332116
0.306296
0.281989
0.259167
0.237796
0.217833
0.199232
0.181943
0.165911
0.151081
0.137393
0.124791
0.113215
0.102607
0.0929091
0.0840666
0.0760251
0.0687328
0.0621404
0.0562011
0.0508709
0.0461088
0.0418769
0.0381404
0.0348675
0.0320298
0.029602
0.0275618
0.0258906
0.0245724
0.0235948
0.0229483
0.0226267
0.977433
0.93238
0.887573
0.843172
0.799331
0.756197
0.71391
0.672598
0.632375
0.593348
0.555605
0.519223
0.484266
0.450782
0.418808
0.388367
0.35947
0.332116
0.306296
0.281989
0.259167
0.237796
0.217833
0.199232
0.181943
0.165911
0.15108
0.137393
0.124791
0.113215
0.102606
0.0929089
0.0840664
0.0760249
0.0687327
0.0621402
0.0562009
0.0508707
0.0461087
0.0418768
0.0381403
0.0348674
0.0320297
0.0296019
0.0275618
0.0258906
0.0245724
0.0235948
0.0229483
0.0226267
0.977433
0.93238
0.887573
0.843172
0.799331
0.756197
0.71391
0.672598
0.632375
0.593348
0.555604
0.519223
0.484266
0.450782
0.418808
0.388367
0.35947
0.332116
0.306296
0.281989
0.259167
0.237796
0.217833
0.199232
0.181943
0.165911
0.15108
0.137393
0.124791
0.113214
0.102606
0.0929087
0.0840662
0.0760248
0.0687325
0.0621401
0.0562008
0.0508706
0.0461086
0.0418767
0.0381402
0.0348674
0.0320297
0.0296019
0.0275618
0.0258906
0.0245724
0.0235948
0.0229483
0.0226267
0.977433
0.93238
0.887573
0.843172
0.799331
0.756197
0.71391
0.672598
0.632375
0.593348
0.555604
0.519223
0.484266
0.450782
0.418808
0.388367
0.35947
0.332116
0.306296
0.281989
0.259167
0.237796
0.217833
0.199232
0.181943
0.165911
0.15108
0.137393
0.12479
0.113214
0.102606
0.0929086
0.0840661
0.0760246
0.0687324
0.06214
0.0562007
0.0508705
0.0461085
0.0418767
0.0381402
0.0348674
0.0320297
0.0296019
0.0275618
0.0258906
0.0245724
0.0235948
0.0229484
0.0226267
0.977433
0.93238
0.887573
0.843172
0.799331
0.756197
0.71391
0.672598
0.632375
0.593347
0.555604
0.519223
0.484266
0.450782
0.418808
0.388367
0.35947
0.332116
0.306296
0.281989
0.259167
0.237796
0.217833
0.199232
0.181943
0.165911
0.15108
0.137393
0.12479
0.113214
0.102606
0.0929084
0.084066
0.0760245
0.0687323
0.0621399
0.0562006
0.0508704
0.0461084
0.0418766
0.0381402
0.0348673
0.0320297
0.0296019
0.0275618
0.0258906
0.0245725
0.0235949
0.0229484
0.0226268
0.977433
0.93238
0.887573
0.843172
0.799331
0.756197
0.71391
0.672598
0.632375
0.593347
0.555604
0.519223
0.484266
0.450782
0.418808
0.388367
0.35947
0.332116
0.306296
0.281989
0.259167
0.237795
0.217833
0.199232
0.181942
0.165911
0.15108
0.137393
0.12479
0.113214
0.102606
0.0929084
0.0840659
0.0760244
0.0687322
0.0621398
0.0562005
0.0508704
0.0461084
0.0418766
0.0381401
0.0348673
0.0320297
0.0296019
0.0275619
0.0258907
0.0245725
0.023595
0.0229485
0.0226269
0.977433
0.93238
0.887573
0.843172
0.799331
0.756197
0.71391
0.672598
0.632375
0.593347
0.555604
0.519223
0.484266
0.450782
0.418808
0.388367
0.35947
0.332116
0.306296
0.281989
0.259167
0.237795
0.217833
0.199232
0.181942
0.165911
0.15108
0.137393
0.12479
0.113214
0.102606
0.0929083
0.0840658
0.0760244
0.0687322
0.0621398
0.0562005
0.0508704
0.0461084
0.0418766
0.0381401
0.0348674
0.0320297
0.029602
0.0275619
0.0258907
0.0245726
0.023595
0.0229486
0.0226269
0.977433
0.93238
0.887573
0.843172
0.799331
0.756197
0.71391
0.672598
0.632375
0.593348
0.555604
0.519223
0.484266
0.450782
0.418808
0.388367
0.35947
0.332116
0.306296
0.281989
0.259167
0.237795
0.217833
0.199232
0.181942
0.165911
0.15108
0.137393
0.12479
0.113214
0.102606
0.0929082
0.0840658
0.0760243
0.0687321
0.0621397
0.0562005
0.0508703
0.0461084
0.0418766
0.0381402
0.0348674
0.0320298
0.029602
0.027562
0.0258908
0.0245727
0.0235951
0.0229487
0.022627
0.977433
0.93238
0.887573
0.843172
0.799331
0.756197
0.71391
0.672598
0.632375
0.593348
0.555604
0.519223
0.484266
0.450782
0.418808
0.388367
0.35947
0.332116
0.306296
0.281989
0.259167
0.237795
0.217833
0.199232
0.181942
0.165911
0.15108
0.137392
0.12479
0.113214
0.102606
0.0929082
0.0840657
0.0760243
0.0687321
0.0621397
0.0562005
0.0508703
0.0461084
0.0418766
0.0381402
0.0348674
0.0320298
0.0296021
0.0275621
0.0258909
0.0245728
0.0235952
0.0229488
0.0226271
0.977433
0.93238
0.887573
0.843172
0.799331
0.756197
0.71391
0.672598
0.632375
0.593348
0.555604
0.519223
0.484266
0.450782
0.418808
0.388367
0.35947
0.332116
0.306296
0.281989
0.259167
0.237796
0.217833
0.199232
0.181942
0.165911
0.15108
0.137392
0.12479
0.113214
0.102606
0.0929082
0.0840657
0.0760243
0.0687321
0.0621397
0.0562004
0.0508703
0.0461084
0.0418766
0.0381402
0.0348675
0.0320299
0.0296022
0.0275622
0.025891
0.0245729
0.0235953
0.0229489
0.0226272
0.977433
0.93238
0.887573
0.843172
0.799331
0.756197
0.71391
0.672598
0.632375
0.593348
0.555605
0.519223
0.484266
0.450782
0.418808
0.388367
0.35947
0.332116
0.306296
0.281989
0.259167
0.237796
0.217833
0.199232
0.181942
0.165911
0.15108
0.137392
0.12479
0.113214
0.102606
0.0929081
0.0840657
0.0760242
0.068732
0.0621397
0.0562004
0.0508704
0.0461084
0.0418767
0.0381403
0.0348675
0.03203
0.0296022
0.0275622
0.0258911
0.024573
0.0235954
0.022949
0.0226273
0.977433
0.93238
0.887573
0.843172
0.799331
0.756197
0.71391
0.672598
0.632375
0.593348
0.555605
0.519223
0.484266
0.450782
0.418808
0.388367
0.35947
0.332116
0.306296
0.281989
0.259167
0.237796
0.217833
0.199232
0.181942
0.165911
0.15108
0.137392
0.12479
0.113214
0.102606
0.0929081
0.0840656
0.0760242
0.068732
0.0621397
0.0562004
0.0508704
0.0461084
0.0418767
0.0381403
0.0348676
0.03203
0.0296023
0.0275623
0.0258912
0.0245731
0.0235955
0.0229491
0.0226274
0.977433
0.93238
0.887573
0.843172
0.799331
0.756198
0.71391
0.672598
0.632375
0.593348
0.555605
0.519223
0.484266
0.450782
0.418808
0.388367
0.35947
0.332116
0.306296
0.281989
0.259167
0.237796
0.217833
0.199232
0.181942
0.16591
0.15108
0.137392
0.12479
0.113214
0.102606
0.0929081
0.0840656
0.0760242
0.068732
0.0621397
0.0562005
0.0508704
0.0461085
0.0418767
0.0381404
0.0348677
0.0320301
0.0296024
0.0275624
0.0258912
0.0245732
0.0235956
0.0229492
0.0226275
0.977433
0.93238
0.887573
0.843172
0.799331
0.756198
0.71391
0.672598
0.632375
0.593348
0.555605
0.519223
0.484266
0.450782
0.418808
0.388367
0.35947
0.332116
0.306296
0.281989
0.259167
0.237796
0.217833
0.199232
0.181942
0.16591
0.15108
0.137392
0.12479
0.113214
0.102606
0.0929081
0.0840656
0.0760242
0.068732
0.0621397
0.0562005
0.0508704
0.0461085
0.0418768
0.0381404
0.0348677
0.0320301
0.0296024
0.0275625
0.0258913
0.0245733
0.0235957
0.0229493
0.0226276
0.977433
0.93238
0.887573
0.843172
0.799331
0.756198
0.71391
0.672598
0.632375
0.593348
0.555605
0.519223
0.484266
0.450782
0.418808
0.388367
0.35947
0.332116
0.306296
0.281989
0.259167
0.237796
0.217833
0.199232
0.181942
0.16591
0.15108
0.137392
0.12479
0.113214
0.102606
0.092908
0.0840656
0.0760242
0.068732
0.0621397
0.0562004
0.0508704
0.0461085
0.0418768
0.0381404
0.0348677
0.0320302
0.0296025
0.0275625
0.0258914
0.0245733
0.0235958
0.0229493
0.0226277
)
;

boundaryField
{
    inlet
    {
        type            fixedValue;
        value           uniform 1;
    }
    outlet
    {
        type            zeroGradient;
    }
    lowerWall
    {
        type            zeroGradient;
    }
    upperWall
    {
        type            zeroGradient;
    }
    frontAndBack
    {
        type            empty;
    }
}


// ************************************************************************* //
