/*--------------------------------*- C++ -*----------------------------------*\
  =========                 |
  \\      /  F ield         | OpenFOAM: The Open Source CFD Toolbox
   \\    /   O peration     | Website:  https://openfoam.org
    \\  /    A nd           | Version:  12
     \\/     M anipulation  |
\*---------------------------------------------------------------------------*/
FoamFile
{
    format      ascii;
    class       volScalarField;
    location    "3";
    object      T;
}
// * * * * * * * * * * * * * * * * * * * * * * * * * * * * * * * * * * * * * //

dimensions      [0 0 0 1 0 0 0];

internalField   nonuniform List<scalar> 
1250
(
0.962436
0.887816
0.814658
0.743797
0.67591
0.611516
0.550981
0.494529
0.442268
0.394202
0.350258
0.310298
0.274142
0.241574
0.212359
0.186252
0.163005
0.142371
0.124111
0.107999
0.0938179
0.0813676
0.0704617
0.0609292
0.052614
0.0453745
0.0390831
0.0336249
0.0288974
0.0248093
0.0212795
0.0182364
0.0156167
0.0133649
0.0114325
0.00977685
0.00836097
0.00715269
0.00612414
0.00525132
0.00451356
0.00389323
0.00337532
0.00294719
0.00259832
0.00232004
0.0021054
0.00194901
0.00184692
0.00179654
0.962436
0.887816
0.814658
0.743797
0.67591
0.611516
0.550981
0.494529
0.442268
0.394202
0.350258
0.310299
0.274142
0.241574
0.212359
0.186252
0.163005
0.142371
0.124111
0.107999
0.0938179
0.0813676
0.0704617
0.0609292
0.052614
0.0453745
0.0390831
0.0336249
0.0288974
0.0248093
0.0212795
0.0182363
0.0156167
0.0133649
0.0114325
0.00977682
0.00836093
0.00715263
0.00612408
0.00525124
0.00451347
0.00389313
0.00337521
0.00294708
0.0025982
0.00231992
0.0021053
0.00194895
0.00184691
0.00179656
0.962436
0.887816
0.814658
0.743797
0.67591
0.611516
0.550981
0.494529
0.442268
0.394202
0.350258
0.310299
0.274142
0.241574
0.212359
0.186252
0.163005
0.142371
0.124111
0.107999
0.0938179
0.0813676
0.0704617
0.0609292
0.052614
0.0453745
0.0390831
0.0336249
0.0288974
0.0248093
0.0212795
0.0182363
0.0156166
0.0133649
0.0114324
0.00977679
0.00836089
0.00715259
0.00612404
0.00525119
0.00451343
0.00389308
0.00337517
0.00294703
0.00259815
0.00231986
0.00210523
0.00194888
0.00184687
0.00179656
0.962436
0.887816
0.814659
0.743797
0.67591
0.611516
0.550981
0.494529
0.442268
0.394202
0.350258
0.310299
0.274142
0.241574
0.212359
0.186252
0.163005
0.142371
0.124111
0.107999
0.0938179
0.0813676
0.0704617
0.0609292
0.052614
0.0453745
0.0390831
0.0336249
0.0288974
0.0248093
0.0212795
0.0182363
0.0156166
0.0133649
0.0114324
0.00977676
0.00836086
0.00715256
0.006124
0.00525116
0.00451339
0.00389304
0.00337513
0.002947
0.00259813
0.00231985
0.00210521
0.00194885
0.00184684
0.00179655
0.962436
0.887816
0.814658
0.743797
0.67591
0.611516
0.550981
0.494529
0.442268
0.394202
0.350258
0.310299
0.274142
0.241574
0.212359
0.186252
0.163005
0.142371
0.124111
0.107999
0.0938179
0.0813676
0.0704617
0.0609291
0.052614
0.0453745
0.039083
0.0336249
0.0288974
0.0248093
0.0212795
0.0182363
0.0156166
0.0133648
0.0114324
0.00977673
0.00836083
0.00715253
0.00612397
0.00525113
0.00451336
0.00389301
0.00337509
0.00294697
0.00259809
0.00231983
0.00210521
0.00194884
0.00184683
0.00179655
0.962436
0.887816
0.814658
0.743797
0.67591
0.611516
0.550981
0.494529
0.442268
0.394202
0.350258
0.310299
0.274142
0.241574
0.212359
0.186252
0.163005
0.142371
0.124111
0.107999
0.0938179
0.0813675
0.0704616
0.0609291
0.0526139
0.0453745
0.039083
0.0336248
0.0288974
0.0248092
0.0212794
0.0182363
0.0156166
0.0133648
0.0114324
0.00977671
0.00836081
0.0071525
0.00612394
0.0052511
0.00451334
0.003893
0.00337508
0.00294695
0.00259808
0.00231981
0.0021052
0.00194885
0.00184683
0.00179655
0.962436
0.887816
0.814658
0.743797
0.67591
0.611516
0.550981
0.494529
0.442268
0.394202
0.350258
0.310299
0.274142
0.241574
0.212359
0.186252
0.163005
0.142371
0.124111
0.107999
0.0938178
0.0813675
0.0704616
0.0609291
0.0526139
0.0453745
0.039083
0.0336248
0.0288973
0.0248092
0.0212794
0.0182362
0.0156165
0.0133648
0.0114323
0.00977668
0.00836078
0.00715248
0.00612392
0.00525108
0.00451332
0.00389298
0.00337507
0.00294695
0.00259808
0.00231981
0.0021052
0.00194886
0.00184684
0.00179656
0.962436
0.887816
0.814658
0.743797
0.67591
0.611516
0.550981
0.494529
0.442268
0.394202
0.350258
0.310299
0.274142
0.241574
0.212359
0.186252
0.163005
0.142371
0.124111
0.107999
0.0938178
0.0813675
0.0704616
0.0609291
0.0526139
0.0453744
0.039083
0.0336248
0.0288973
0.0248092
0.0212794
0.0182362
0.0156165
0.0133648
0.0114323
0.00977666
0.00836076
0.00715246
0.00612391
0.00525107
0.00451331
0.00389298
0.00337507
0.00294696
0.00259809
0.00231983
0.00210522
0.00194888
0.00184686
0.00179658
0.962436
0.887816
0.814658
0.743797
0.67591
0.611516
0.550981
0.494529
0.442268
0.394202
0.350258
0.310299
0.274142
0.241574
0.212359
0.186252
0.163005
0.142371
0.124111
0.107999
0.0938178
0.0813675
0.0704616
0.0609291
0.0526139
0.0453744
0.0390829
0.0336248
0.0288973
0.0248091
0.0212793
0.0182362
0.0156165
0.0133647
0.0114323
0.00977664
0.00836075
0.00715245
0.0061239
0.00525107
0.00451332
0.00389299
0.00337508
0.00294697
0.00259811
0.00231985
0.00210525
0.00194891
0.0018469
0.00179662
0.962436
0.887816
0.814658
0.743797
0.67591
0.611516
0.550981
0.494529
0.442268
0.394202
0.350258
0.310298
0.274142
0.241574
0.212359
0.186252
0.163005
0.142371
0.124111
0.107999
0.0938178
0.0813675
0.0704615
0.060929
0.0526138
0.0453744
0.0390829
0.0336247
0.0288972
0.0248091
0.0212793
0.0182361
0.0156165
0.0133647
0.0114323
0.00977662
0.00836073
0.00715244
0.0061239
0.00525108
0.00451333
0.003893
0.00337511
0.002947
0.00259815
0.00231989
0.00210529
0.00194896
0.00184695
0.00179667
0.962436
0.887816
0.814658
0.743797
0.67591
0.611516
0.550981
0.494529
0.442268
0.394202
0.350258
0.310298
0.274142
0.241574
0.212359
0.186252
0.163005
0.142371
0.124111
0.107999
0.0938178
0.0813674
0.0704615
0.060929
0.0526138
0.0453743
0.0390829
0.0336247
0.0288972
0.0248091
0.0212793
0.0182361
0.0156164
0.0133647
0.0114323
0.00977661
0.00836073
0.00715244
0.00612391
0.00525109
0.00451335
0.00389303
0.00337514
0.00294704
0.00259819
0.00231994
0.00210535
0.00194902
0.00184701
0.00179673
0.962436
0.887816
0.814658
0.743797
0.67591
0.611516
0.550981
0.494529
0.442268
0.394202
0.350258
0.310298
0.274142
0.241574
0.212359
0.186252
0.163005
0.142371
0.124111
0.107999
0.0938177
0.0813674
0.0704615
0.060929
0.0526138
0.0453743
0.0390828
0.0336247
0.0288972
0.0248091
0.0212792
0.0182361
0.0156164
0.0133647
0.0114322
0.0097766
0.00836073
0.00715245
0.00612392
0.00525111
0.00451338
0.00389307
0.00337519
0.00294709
0.00259825
0.00232001
0.00210541
0.00194909
0.00184708
0.0017968
0.962436
0.887816
0.814658
0.743797
0.67591
0.611516
0.550981
0.494529
0.442268
0.394202
0.350258
0.310298
0.274142
0.241574
0.212359
0.186252
0.163005
0.142371
0.124111
0.107999
0.0938177
0.0813674
0.0704614
0.0609289
0.0526137
0.0453743
0.0390828
0.0336246
0.0288971
0.024809
0.0212792
0.0182361
0.0156164
0.0133647
0.0114322
0.0097766
0.00836073
0.00715246
0.00612394
0.00525114
0.00451341
0.00389311
0.00337524
0.00294715
0.00259832
0.00232008
0.00210549
0.00194917
0.00184716
0.00179689
0.962436
0.887816
0.814658
0.743797
0.67591
0.611516
0.550981
0.494529
0.442268
0.394202
0.350258
0.310298
0.274142
0.241574
0.212359
0.186252
0.163005
0.14237
0.124111
0.107999
0.0938177
0.0813673
0.0704614
0.0609289
0.0526137
0.0453742
0.0390828
0.0336246
0.0288971
0.024809
0.0212792
0.018236
0.0156164
0.0133646
0.0114322
0.0097766
0.00836074
0.00715248
0.00612397
0.00525118
0.00451346
0.00389317
0.0033753
0.00294723
0.0025984
0.00232017
0.00210559
0.00194926
0.00184726
0.00179698
0.962436
0.887816
0.814658
0.743797
0.67591
0.611516
0.550981
0.494529
0.442268
0.394202
0.350258
0.310298
0.274142
0.241574
0.212359
0.186252
0.163005
0.14237
0.124111
0.107999
0.0938176
0.0813673
0.0704614
0.0609289
0.0526137
0.0453742
0.0390827
0.0336246
0.0288971
0.024809
0.0212792
0.018236
0.0156164
0.0133646
0.0114322
0.0097766
0.00836075
0.0071525
0.006124
0.00525122
0.00451351
0.00389323
0.00337538
0.00294731
0.00259849
0.00232026
0.00210569
0.00194937
0.00184736
0.00179709
0.962436
0.887816
0.814658
0.743797
0.67591
0.611516
0.550981
0.494529
0.442268
0.394202
0.350258
0.310298
0.274142
0.241574
0.212359
0.186252
0.163005
0.14237
0.124111
0.107999
0.0938176
0.0813673
0.0704614
0.0609288
0.0526136
0.0453742
0.0390827
0.0336245
0.0288971
0.0248089
0.0212792
0.018236
0.0156163
0.0133646
0.0114322
0.00977662
0.00836077
0.00715253
0.00612404
0.00525127
0.00451358
0.00389331
0.00337546
0.0029474
0.00259859
0.00232037
0.0021058
0.00194948
0.00184748
0.00179721
0.962436
0.887816
0.814658
0.743797
0.67591
0.611516
0.550981
0.494529
0.442268
0.394202
0.350258
0.310298
0.274142
0.241574
0.212359
0.186252
0.163005
0.14237
0.124111
0.107999
0.0938176
0.0813673
0.0704613
0.0609288
0.0526136
0.0453742
0.0390827
0.0336245
0.028897
0.0248089
0.0212791
0.018236
0.0156163
0.0133646
0.0114322
0.00977663
0.0083608
0.00715257
0.00612409
0.00525133
0.00451365
0.00389339
0.00337555
0.0029475
0.0025987
0.00232049
0.00210592
0.00194961
0.00184761
0.00179733
0.962436
0.887816
0.814658
0.743797
0.67591
0.611516
0.550981
0.494529
0.442268
0.394202
0.350258
0.310298
0.274142
0.241574
0.212359
0.186252
0.163005
0.14237
0.124111
0.107998
0.0938176
0.0813672
0.0704613
0.0609288
0.0526136
0.0453741
0.0390827
0.0336245
0.028897
0.0248089
0.0212791
0.018236
0.0156163
0.0133646
0.0114322
0.00977665
0.00836083
0.00715261
0.00612414
0.0052514
0.00451372
0.00389348
0.00337565
0.00294761
0.00259882
0.00232061
0.00210605
0.00194974
0.00184774
0.00179747
0.962436
0.887816
0.814658
0.743797
0.67591
0.611516
0.550981
0.494529
0.442267
0.394202
0.350258
0.310298
0.274142
0.241574
0.212359
0.186252
0.163005
0.14237
0.124111
0.107998
0.0938176
0.0813672
0.0704613
0.0609288
0.0526136
0.0453741
0.0390826
0.0336245
0.028897
0.0248089
0.0212791
0.018236
0.0156163
0.0133646
0.0114323
0.00977668
0.00836087
0.00715266
0.0061242
0.00525147
0.00451381
0.00389357
0.00337576
0.00294773
0.00259894
0.00232075
0.00210619
0.00194989
0.00184789
0.00179761
0.962436
0.887816
0.814658
0.743797
0.67591
0.611516
0.550981
0.494529
0.442267
0.394202
0.350257
0.310298
0.274142
0.241574
0.212359
0.186252
0.163005
0.14237
0.124111
0.107998
0.0938175
0.0813672
0.0704613
0.0609287
0.0526135
0.0453741
0.0390826
0.0336244
0.028897
0.0248089
0.0212791
0.018236
0.0156163
0.0133647
0.0114323
0.00977671
0.00836091
0.00715271
0.00612426
0.00525154
0.00451389
0.00389367
0.00337587
0.00294785
0.00259907
0.00232088
0.00210633
0.00195003
0.00184804
0.00179776
0.962436
0.887816
0.814658
0.743797
0.67591
0.611516
0.550981
0.494529
0.442267
0.394202
0.350257
0.310298
0.274142
0.241574
0.212359
0.186252
0.163005
0.14237
0.124111
0.107998
0.0938175
0.0813672
0.0704613
0.0609287
0.0526135
0.0453741
0.0390826
0.0336244
0.028897
0.0248089
0.0212791
0.018236
0.0156163
0.0133647
0.0114323
0.00977674
0.00836095
0.00715276
0.00612433
0.00525162
0.00451398
0.00389377
0.00337598
0.00294797
0.00259921
0.00232103
0.00210648
0.00195018
0.00184819
0.00179791
0.962436
0.887816
0.814658
0.743797
0.67591
0.611516
0.550981
0.494529
0.442267
0.394202
0.350257
0.310298
0.274142
0.241574
0.212359
0.186252
0.163005
0.14237
0.124111
0.107998
0.0938175
0.0813672
0.0704612
0.0609287
0.0526135
0.0453741
0.0390826
0.0336244
0.0288969
0.0248089
0.0212791
0.018236
0.0156163
0.0133647
0.0114323
0.00977677
0.00836099
0.00715282
0.0061244
0.0052517
0.00451408
0.00389388
0.0033761
0.0029481
0.00259934
0.00232117
0.00210663
0.00195034
0.00184835
0.00179807
0.962436
0.887816
0.814658
0.743797
0.67591
0.611516
0.550981
0.494529
0.442267
0.394202
0.350257
0.310298
0.274142
0.241574
0.212359
0.186252
0.163005
0.14237
0.124111
0.107998
0.0938175
0.0813672
0.0704612
0.0609287
0.0526135
0.045374
0.0390826
0.0336244
0.0288969
0.0248088
0.0212791
0.018236
0.0156164
0.0133647
0.0114323
0.0097768
0.00836104
0.00715287
0.00612447
0.00525178
0.00451417
0.00389398
0.00337622
0.00294823
0.00259948
0.00232131
0.00210678
0.00195049
0.0018485
0.00179822
0.962436
0.887816
0.814658
0.743797
0.67591
0.611516
0.550981
0.494529
0.442267
0.394202
0.350257
0.310298
0.274142
0.241574
0.212359
0.186252
0.163005
0.14237
0.124111
0.107998
0.0938175
0.0813671
0.0704612
0.0609287
0.0526135
0.045374
0.0390826
0.0336244
0.0288969
0.0248088
0.0212791
0.018236
0.0156164
0.0133647
0.0114324
0.00977684
0.00836108
0.00715293
0.00612453
0.00525186
0.00451426
0.00389409
0.00337633
0.00294835
0.00259961
0.00232146
0.00210693
0.00195065
0.00184866
0.00179838
0.962436
0.887816
0.814658
0.743797
0.67591
0.611516
0.550981
0.494529
0.442267
0.394202
0.350257
0.310298
0.274142
0.241574
0.212359
0.186252
0.163005
0.14237
0.124111
0.107998
0.0938175
0.0813671
0.0704612
0.0609287
0.0526135
0.045374
0.0390826
0.0336244
0.0288969
0.0248088
0.0212791
0.018236
0.0156164
0.0133647
0.0114324
0.00977687
0.00836112
0.00715298
0.0061246
0.00525193
0.00451435
0.00389418
0.00337644
0.00294847
0.00259974
0.00232159
0.00210707
0.00195079
0.0018488
0.00179852
)
;

boundaryField
{
    inlet
    {
        type            fixedValue;
        value           uniform 1;
    }
    outlet
    {
        type            zeroGradient;
    }
    lowerWall
    {
        type            zeroGradient;
    }
    upperWall
    {
        type            zeroGradient;
    }
    frontAndBack
    {
        type            empty;
    }
}


// ************************************************************************* //
