/*--------------------------------*- C++ -*----------------------------------*\
  =========                 |
  \\      /  F ield         | OpenFOAM: The Open Source CFD Toolbox
   \\    /   O peration     | Website:  https://openfoam.org
    \\  /    A nd           | Version:  12
     \\/     M anipulation  |
\*---------------------------------------------------------------------------*/
FoamFile
{
    format      ascii;
    class       volScalarField;
    location    "17";
    object      T;
}
// * * * * * * * * * * * * * * * * * * * * * * * * * * * * * * * * * * * * * //

dimensions      [0 0 0 1 0 0 0];

internalField   nonuniform List<scalar> 
1250
(
0.986116
0.958367
0.930674
0.903077
0.875613
0.848317
0.821228
0.794381
0.76781
0.74155
0.715633
0.690092
0.664956
0.640255
0.616016
0.592266
0.569031
0.546332
0.524192
0.502632
0.48167
0.461323
0.441607
0.422535
0.404122
0.386377
0.369312
0.352934
0.33725
0.322268
0.307992
0.294427
0.281575
0.26944
0.258022
0.247322
0.237342
0.228081
0.219539
0.211714
0.204607
0.198215
0.192537
0.187573
0.183321
0.179779
0.176948
0.174825
0.17341
0.172702
0.986116
0.958367
0.930674
0.903077
0.875613
0.848318
0.821228
0.794381
0.76781
0.74155
0.715633
0.690092
0.664956
0.640255
0.616016
0.592266
0.569031
0.546332
0.524192
0.502632
0.48167
0.461323
0.441607
0.422535
0.404122
0.386377
0.369312
0.352934
0.33725
0.322268
0.307992
0.294427
0.281575
0.26944
0.258022
0.247322
0.237342
0.228081
0.219539
0.211714
0.204607
0.198215
0.192537
0.187573
0.183321
0.179779
0.176947
0.174824
0.173409
0.172702
0.986116
0.958367
0.930674
0.903077
0.875613
0.848317
0.821228
0.794381
0.76781
0.74155
0.715633
0.690092
0.664956
0.640255
0.616016
0.592266
0.569031
0.546332
0.524192
0.502632
0.48167
0.461323
0.441606
0.422535
0.404122
0.386377
0.369312
0.352933
0.33725
0.322268
0.307992
0.294427
0.281575
0.26944
0.258022
0.247322
0.237342
0.228081
0.219539
0.211714
0.204607
0.198215
0.192537
0.187573
0.183321
0.179779
0.176947
0.174824
0.173409
0.172702
0.986116
0.958367
0.930674
0.903077
0.875613
0.848317
0.821228
0.794381
0.76781
0.74155
0.715633
0.690092
0.664956
0.640255
0.616016
0.592266
0.56903
0.546332
0.524192
0.502632
0.48167
0.461323
0.441606
0.422535
0.404122
0.386377
0.369311
0.352933
0.33725
0.322268
0.307992
0.294427
0.281575
0.269439
0.258021
0.247322
0.237342
0.228081
0.219539
0.211714
0.204606
0.198215
0.192537
0.187573
0.183321
0.179779
0.176947
0.174824
0.173409
0.172702
0.986116
0.958367
0.930674
0.903077
0.875612
0.848317
0.821228
0.794381
0.76781
0.74155
0.715633
0.690092
0.664956
0.640254
0.616016
0.592266
0.56903
0.546332
0.524192
0.502632
0.48167
0.461322
0.441606
0.422535
0.404122
0.386377
0.369311
0.352933
0.33725
0.322268
0.307992
0.294427
0.281575
0.269439
0.258021
0.247322
0.237342
0.228081
0.219538
0.211714
0.204606
0.198214
0.192537
0.187573
0.18332
0.179779
0.176947
0.174824
0.173409
0.172702
0.986116
0.958366
0.930674
0.903077
0.875612
0.848317
0.821228
0.794381
0.76781
0.74155
0.715633
0.690092
0.664955
0.640254
0.616016
0.592266
0.56903
0.546332
0.524192
0.502632
0.481669
0.461322
0.441606
0.422535
0.404121
0.386377
0.369311
0.352933
0.33725
0.322268
0.307992
0.294426
0.281575
0.269439
0.258021
0.247322
0.237342
0.228081
0.219538
0.211714
0.204606
0.198214
0.192537
0.187572
0.18332
0.179779
0.176947
0.174824
0.173409
0.172701
0.986116
0.958366
0.930674
0.903077
0.875612
0.848317
0.821228
0.794381
0.76781
0.74155
0.715633
0.690091
0.664955
0.640254
0.616015
0.592266
0.56903
0.546331
0.524192
0.502631
0.481669
0.461322
0.441606
0.422535
0.404121
0.386377
0.369311
0.352933
0.33725
0.322267
0.307992
0.294426
0.281575
0.269439
0.258021
0.247321
0.237341
0.22808
0.219538
0.211713
0.204606
0.198214
0.192536
0.187572
0.18332
0.179778
0.176947
0.174824
0.173409
0.172701
0.986116
0.958366
0.930674
0.903077
0.875612
0.848317
0.821228
0.794381
0.76781
0.74155
0.715633
0.690091
0.664955
0.640254
0.616015
0.592266
0.56903
0.546331
0.524192
0.502631
0.481669
0.461322
0.441606
0.422534
0.404121
0.386376
0.369311
0.352933
0.337249
0.322267
0.307991
0.294426
0.281574
0.269439
0.258021
0.247321
0.237341
0.22808
0.219538
0.211713
0.204605
0.198214
0.192536
0.187572
0.18332
0.179778
0.176946
0.174823
0.173408
0.172701
0.986116
0.958366
0.930674
0.903077
0.875612
0.848317
0.821228
0.794381
0.76781
0.74155
0.715633
0.690091
0.664955
0.640254
0.616015
0.592265
0.56903
0.546331
0.524191
0.502631
0.481669
0.461322
0.441605
0.422534
0.404121
0.386376
0.36931
0.352932
0.337249
0.322267
0.307991
0.294426
0.281574
0.269438
0.25802
0.247321
0.237341
0.22808
0.219537
0.211713
0.204605
0.198213
0.192536
0.187572
0.183319
0.179778
0.176946
0.174823
0.173408
0.172701
0.986116
0.958366
0.930674
0.903077
0.875612
0.848317
0.821228
0.79438
0.76781
0.741549
0.715633
0.690091
0.664955
0.640254
0.616015
0.592265
0.569029
0.546331
0.524191
0.502631
0.481668
0.461321
0.441605
0.422534
0.40412
0.386376
0.36931
0.352932
0.337249
0.322267
0.307991
0.294425
0.281574
0.269438
0.25802
0.247321
0.23734
0.228079
0.219537
0.211712
0.204605
0.198213
0.192535
0.187571
0.183319
0.179777
0.176946
0.174823
0.173408
0.1727
0.986116
0.958366
0.930674
0.903077
0.875612
0.848317
0.821228
0.79438
0.767809
0.741549
0.715632
0.690091
0.664955
0.640253
0.616015
0.592265
0.569029
0.54633
0.524191
0.50263
0.481668
0.461321
0.441605
0.422534
0.40412
0.386375
0.36931
0.352932
0.337248
0.322266
0.30799
0.294425
0.281573
0.269438
0.25802
0.24732
0.23734
0.228079
0.219537
0.211712
0.204604
0.198213
0.192535
0.187571
0.183319
0.179777
0.176945
0.174822
0.173407
0.1727
0.986116
0.958366
0.930674
0.903077
0.875612
0.848317
0.821228
0.79438
0.767809
0.741549
0.715632
0.69009
0.664954
0.640253
0.616014
0.592265
0.569029
0.54633
0.52419
0.50263
0.481668
0.461321
0.441604
0.422533
0.40412
0.386375
0.369309
0.352931
0.337248
0.322266
0.30799
0.294425
0.281573
0.269437
0.258019
0.24732
0.23734
0.228079
0.219536
0.211712
0.204604
0.198212
0.192535
0.187571
0.183318
0.179777
0.176945
0.174822
0.173407
0.1727
0.986116
0.958366
0.930674
0.903077
0.875612
0.848317
0.821227
0.79438
0.767809
0.741549
0.715632
0.69009
0.664954
0.640253
0.616014
0.592264
0.569028
0.54633
0.52419
0.50263
0.481667
0.46132
0.441604
0.422533
0.404119
0.386375
0.369309
0.352931
0.337248
0.322266
0.30799
0.294424
0.281573
0.269437
0.258019
0.247319
0.237339
0.228078
0.219536
0.211711
0.204604
0.198212
0.192534
0.18757
0.183318
0.179776
0.176945
0.174822
0.173407
0.172699
0.986116
0.958366
0.930674
0.903077
0.875612
0.848317
0.821227
0.79438
0.767809
0.741549
0.715632
0.69009
0.664954
0.640253
0.616014
0.592264
0.569028
0.546329
0.52419
0.502629
0.481667
0.46132
0.441604
0.422533
0.404119
0.386374
0.369309
0.352931
0.337247
0.322265
0.307989
0.294424
0.281572
0.269436
0.258018
0.247319
0.237339
0.228078
0.219535
0.211711
0.204603
0.198211
0.192534
0.18757
0.183318
0.179776
0.176944
0.174821
0.173406
0.172699
0.986116
0.958366
0.930674
0.903077
0.875612
0.848316
0.821227
0.79438
0.767809
0.741548
0.715632
0.69009
0.664954
0.640252
0.616014
0.592264
0.569028
0.546329
0.52419
0.502629
0.481667
0.46132
0.441603
0.422532
0.404119
0.386374
0.369308
0.35293
0.337247
0.322265
0.307989
0.294424
0.281572
0.269436
0.258018
0.247319
0.237339
0.228077
0.219535
0.211711
0.204603
0.198211
0.192534
0.187569
0.183317
0.179776
0.176944
0.174821
0.173406
0.172699
0.986116
0.958366
0.930674
0.903077
0.875612
0.848316
0.821227
0.79438
0.767809
0.741548
0.715631
0.69009
0.664953
0.640252
0.616013
0.592264
0.569028
0.546329
0.524189
0.502629
0.481667
0.461319
0.441603
0.422532
0.404118
0.386374
0.369308
0.35293
0.337247
0.322265
0.307989
0.294423
0.281571
0.269436
0.258018
0.247318
0.237338
0.228077
0.219535
0.21171
0.204603
0.198211
0.192533
0.187569
0.183317
0.179775
0.176944
0.174821
0.173406
0.172698
0.986116
0.958366
0.930674
0.903076
0.875612
0.848316
0.821227
0.794379
0.767809
0.741548
0.715631
0.690089
0.664953
0.640252
0.616013
0.592263
0.569027
0.546329
0.524189
0.502629
0.481666
0.461319
0.441603
0.422532
0.404118
0.386373
0.369308
0.35293
0.337246
0.322264
0.307988
0.294423
0.281571
0.269435
0.258017
0.247318
0.237338
0.228077
0.219534
0.21171
0.204602
0.19821
0.192533
0.187569
0.183317
0.179775
0.176943
0.17482
0.173405
0.172698
0.986116
0.958366
0.930674
0.903076
0.875612
0.848316
0.821227
0.794379
0.767808
0.741548
0.715631
0.690089
0.664953
0.640252
0.616013
0.592263
0.569027
0.546328
0.524189
0.502628
0.481666
0.461319
0.441603
0.422531
0.404118
0.386373
0.369307
0.352929
0.337246
0.322264
0.307988
0.294423
0.281571
0.269435
0.258017
0.247318
0.237338
0.228076
0.219534
0.21171
0.204602
0.19821
0.192533
0.187569
0.183316
0.179775
0.176943
0.17482
0.173405
0.172698
0.986116
0.958366
0.930674
0.903076
0.875611
0.848316
0.821227
0.794379
0.767808
0.741548
0.715631
0.690089
0.664953
0.640252
0.616013
0.592263
0.569027
0.546328
0.524189
0.502628
0.481666
0.461319
0.441602
0.422531
0.404117
0.386373
0.369307
0.352929
0.337246
0.322264
0.307988
0.294422
0.28157
0.269435
0.258017
0.247317
0.237337
0.228076
0.219534
0.211709
0.204602
0.19821
0.192533
0.187568
0.183316
0.179775
0.176943
0.17482
0.173405
0.172698
0.986116
0.958366
0.930674
0.903076
0.875611
0.848316
0.821227
0.794379
0.767808
0.741548
0.715631
0.690089
0.664953
0.640251
0.616013
0.592263
0.569027
0.546328
0.524188
0.502628
0.481666
0.461318
0.441602
0.422531
0.404117
0.386373
0.369307
0.352929
0.337245
0.322263
0.307987
0.294422
0.28157
0.269434
0.258016
0.247317
0.237337
0.228076
0.219534
0.211709
0.204602
0.19821
0.192532
0.187568
0.183316
0.179775
0.176943
0.17482
0.173405
0.172698
0.986116
0.958366
0.930674
0.903076
0.875611
0.848316
0.821227
0.794379
0.767808
0.741548
0.715631
0.690089
0.664953
0.640251
0.616012
0.592263
0.569027
0.546328
0.524188
0.502628
0.481665
0.461318
0.441602
0.422531
0.404117
0.386372
0.369307
0.352929
0.337245
0.322263
0.307987
0.294422
0.28157
0.269434
0.258016
0.247317
0.237337
0.228076
0.219533
0.211709
0.204601
0.19821
0.192532
0.187568
0.183316
0.179774
0.176943
0.17482
0.173405
0.172697
0.986116
0.958366
0.930674
0.903076
0.875611
0.848316
0.821227
0.794379
0.767808
0.741548
0.715631
0.690089
0.664953
0.640251
0.616012
0.592263
0.569027
0.546328
0.524188
0.502628
0.481665
0.461318
0.441602
0.42253
0.404117
0.386372
0.369307
0.352928
0.337245
0.322263
0.307987
0.294422
0.28157
0.269434
0.258016
0.247317
0.237337
0.228076
0.219533
0.211709
0.204601
0.198209
0.192532
0.187568
0.183316
0.179774
0.176943
0.17482
0.173405
0.172697
0.986116
0.958366
0.930674
0.903076
0.875611
0.848316
0.821227
0.794379
0.767808
0.741548
0.715631
0.690089
0.664952
0.640251
0.616012
0.592262
0.569026
0.546328
0.524188
0.502628
0.481665
0.461318
0.441602
0.42253
0.404117
0.386372
0.369306
0.352928
0.337245
0.322263
0.307987
0.294421
0.28157
0.269434
0.258016
0.247317
0.237337
0.228076
0.219533
0.211709
0.204601
0.198209
0.192532
0.187568
0.183316
0.179774
0.176942
0.174819
0.173405
0.172697
0.986116
0.958366
0.930674
0.903076
0.875611
0.848316
0.821227
0.794379
0.767808
0.741547
0.71563
0.690089
0.664952
0.640251
0.616012
0.592262
0.569026
0.546328
0.524188
0.502627
0.481665
0.461318
0.441602
0.42253
0.404117
0.386372
0.369306
0.352928
0.337245
0.322263
0.307987
0.294421
0.28157
0.269434
0.258016
0.247317
0.237336
0.228075
0.219533
0.211709
0.204601
0.198209
0.192532
0.187568
0.183316
0.179774
0.176942
0.174819
0.173405
0.172697
0.986116
0.958366
0.930674
0.903076
0.875611
0.848316
0.821226
0.794379
0.767808
0.741547
0.71563
0.690089
0.664952
0.640251
0.616012
0.592262
0.569026
0.546328
0.524188
0.502627
0.481665
0.461318
0.441601
0.42253
0.404117
0.386372
0.369306
0.352928
0.337245
0.322263
0.307987
0.294421
0.28157
0.269434
0.258016
0.247317
0.237336
0.228075
0.219533
0.211709
0.204601
0.198209
0.192532
0.187568
0.183316
0.179774
0.176942
0.17482
0.173405
0.172697
)
;

boundaryField
{
    inlet
    {
        type            fixedValue;
        value           uniform 1;
    }
    outlet
    {
        type            zeroGradient;
    }
    lowerWall
    {
        type            zeroGradient;
    }
    upperWall
    {
        type            zeroGradient;
    }
    frontAndBack
    {
        type            empty;
    }
}


// ************************************************************************* //
