/*--------------------------------*- C++ -*----------------------------------*\
  =========                 |
  \\      /  F ield         | OpenFOAM: The Open Source CFD Toolbox
   \\    /   O peration     | Website:  https://openfoam.org
    \\  /    A nd           | Version:  12
     \\/     M anipulation  |
\*---------------------------------------------------------------------------*/
FoamFile
{
    format      ascii;
    class       volScalarField;
    location    "6";
    object      T;
}
// * * * * * * * * * * * * * * * * * * * * * * * * * * * * * * * * * * * * * //

dimensions      [0 0 0 1 0 0 0];

internalField   nonuniform List<scalar> 
1250
(
0.975378
0.926243
0.877434
0.829165
0.781637
0.735042
0.689554
0.645332
0.602518
0.56123
0.521569
0.483614
0.447425
0.413044
0.380491
0.349773
0.32088
0.293788
0.268462
0.244856
0.222916
0.202581
0.183782
0.166449
0.150507
0.135881
0.122495
0.110272
0.0991362
0.0890152
0.0798374
0.0715345
0.0640409
0.0572947
0.0512373
0.0458139
0.0409733
0.0366684
0.0328556
0.0294952
0.0265513
0.0239913
0.0217865
0.0199116
0.0183446
0.0170669
0.0160631
0.015321
0.0148315
0.0145885
0.975378
0.926243
0.877434
0.829165
0.781637
0.735042
0.689554
0.645332
0.602518
0.56123
0.521569
0.483614
0.447425
0.413044
0.380491
0.349773
0.320879
0.293788
0.268462
0.244856
0.222916
0.202581
0.183782
0.166449
0.150507
0.135881
0.122495
0.110272
0.0991362
0.0890152
0.0798374
0.0715345
0.0640409
0.0572947
0.0512373
0.0458138
0.0409733
0.0366684
0.0328556
0.0294952
0.0265512
0.0239912
0.0217865
0.0199116
0.0183446
0.0170668
0.0160628
0.0153204
0.0148307
0.014588
0.975378
0.926242
0.877434
0.829165
0.781637
0.735042
0.689554
0.645332
0.602518
0.56123
0.521569
0.483614
0.447425
0.413044
0.380491
0.349773
0.320879
0.293788
0.268462
0.244856
0.222916
0.20258
0.183782
0.166449
0.150507
0.135881
0.122495
0.110272
0.0991361
0.0890151
0.0798374
0.0715344
0.0640409
0.0572946
0.0512372
0.0458138
0.0409732
0.0366683
0.0328555
0.0294951
0.0265511
0.0239911
0.0217864
0.0199115
0.0183445
0.0170669
0.0160631
0.0153208
0.0148308
0.0145878
0.975378
0.926242
0.877434
0.829165
0.781637
0.735042
0.689554
0.645332
0.602518
0.56123
0.521568
0.483614
0.447425
0.413043
0.380491
0.349773
0.320879
0.293788
0.268462
0.244856
0.222916
0.20258
0.183782
0.166448
0.150507
0.135881
0.122495
0.110271
0.099136
0.089015
0.0798373
0.0715343
0.0640408
0.0572945
0.0512371
0.0458137
0.0409731
0.0366682
0.0328554
0.029495
0.026551
0.0239911
0.0217863
0.0199114
0.0183443
0.0170667
0.016063
0.0153208
0.0148309
0.0145877
0.975378
0.926243
0.877434
0.829165
0.781637
0.735042
0.689554
0.645332
0.602518
0.56123
0.521568
0.483614
0.447425
0.413043
0.380491
0.349772
0.320879
0.293787
0.268462
0.244856
0.222916
0.20258
0.183781
0.166448
0.150507
0.135881
0.122495
0.110271
0.0991359
0.0890149
0.0798371
0.0715342
0.0640406
0.0572944
0.051237
0.0458136
0.040973
0.0366681
0.0328553
0.0294949
0.0265509
0.023991
0.0217863
0.0199114
0.0183444
0.0170666
0.0160628
0.0153207
0.014831
0.0145877
0.975378
0.926243
0.877434
0.829165
0.781637
0.735042
0.689554
0.645332
0.602518
0.56123
0.521568
0.483614
0.447425
0.413043
0.380491
0.349772
0.320879
0.293787
0.268461
0.244856
0.222916
0.20258
0.183781
0.166448
0.150507
0.135881
0.122495
0.110271
0.0991357
0.0890147
0.079837
0.071534
0.0640405
0.0572943
0.0512369
0.0458134
0.0409729
0.036668
0.0328552
0.0294948
0.0265508
0.0239909
0.0217861
0.0199113
0.0183443
0.0170666
0.0160627
0.0153206
0.0148309
0.0145877
0.975378
0.926242
0.877434
0.829165
0.781637
0.735042
0.689554
0.645332
0.602517
0.561229
0.521568
0.483614
0.447425
0.413043
0.38049
0.349772
0.320879
0.293787
0.268461
0.244856
0.222916
0.20258
0.183781
0.166448
0.150506
0.135881
0.122494
0.110271
0.0991355
0.0890145
0.0798368
0.0715339
0.0640403
0.0572941
0.0512367
0.0458133
0.0409727
0.0366678
0.0328551
0.0294947
0.0265508
0.0239908
0.021786
0.0199112
0.0183443
0.0170666
0.0160627
0.0153206
0.0148309
0.0145876
0.975378
0.926242
0.877434
0.829165
0.781637
0.735041
0.689554
0.645332
0.602517
0.561229
0.521568
0.483614
0.447425
0.413043
0.38049
0.349772
0.320879
0.293787
0.268461
0.244856
0.222916
0.20258
0.183781
0.166448
0.150506
0.135881
0.122494
0.110271
0.0991353
0.0890143
0.0798366
0.0715337
0.0640401
0.0572939
0.0512365
0.0458131
0.0409726
0.0366677
0.0328549
0.0294946
0.0265507
0.0239907
0.021786
0.0199111
0.0183442
0.0170665
0.0160627
0.0153205
0.0148309
0.0145876
0.975378
0.926242
0.877434
0.829165
0.781637
0.735041
0.689554
0.645332
0.602517
0.561229
0.521568
0.483613
0.447425
0.413043
0.38049
0.349772
0.320879
0.293787
0.268461
0.244855
0.222915
0.20258
0.183781
0.166448
0.150506
0.13588
0.122494
0.110271
0.0991351
0.0890141
0.0798364
0.0715335
0.06404
0.0572937
0.0512364
0.045813
0.0409724
0.0366676
0.0328548
0.0294945
0.0265506
0.0239907
0.0217859
0.0199111
0.0183441
0.0170665
0.0160627
0.0153205
0.0148309
0.0145876
0.975378
0.926242
0.877434
0.829165
0.781637
0.735041
0.689554
0.645332
0.602517
0.561229
0.521568
0.483613
0.447425
0.413043
0.38049
0.349772
0.320879
0.293787
0.268461
0.244855
0.222915
0.202579
0.183781
0.166447
0.150506
0.13588
0.122494
0.11027
0.0991349
0.0890139
0.0798362
0.0715333
0.0640398
0.0572936
0.0512362
0.0458128
0.0409723
0.0366674
0.0328547
0.0294944
0.0265505
0.0239906
0.0217859
0.0199111
0.0183441
0.0170665
0.0160627
0.0153205
0.0148309
0.0145876
0.975378
0.926242
0.877434
0.829165
0.781637
0.735041
0.689554
0.645332
0.602517
0.561229
0.521568
0.483613
0.447425
0.413043
0.38049
0.349772
0.320878
0.293787
0.268461
0.244855
0.222915
0.202579
0.18378
0.166447
0.150506
0.13588
0.122494
0.11027
0.0991347
0.0890138
0.079836
0.0715331
0.0640396
0.0572934
0.051236
0.0458127
0.0409722
0.0366673
0.0328546
0.0294943
0.0265504
0.0239905
0.0217859
0.019911
0.0183441
0.0170665
0.0160627
0.0153206
0.0148309
0.0145876
0.975378
0.926242
0.877434
0.829165
0.781637
0.735041
0.689554
0.645332
0.602517
0.561229
0.521568
0.483613
0.447425
0.413043
0.38049
0.349772
0.320878
0.293787
0.268461
0.244855
0.222915
0.202579
0.18378
0.166447
0.150506
0.13588
0.122493
0.11027
0.0991346
0.0890136
0.0798359
0.071533
0.0640395
0.0572933
0.0512359
0.0458125
0.0409721
0.0366672
0.0328545
0.0294943
0.0265504
0.0239905
0.0217858
0.019911
0.0183441
0.0170665
0.0160627
0.0153206
0.0148309
0.0145877
0.975378
0.926242
0.877434
0.829165
0.781637
0.735041
0.689553
0.645332
0.602517
0.561229
0.521568
0.483613
0.447425
0.413043
0.38049
0.349772
0.320878
0.293786
0.268461
0.244855
0.222915
0.202579
0.18378
0.166447
0.150505
0.13588
0.122493
0.11027
0.0991344
0.0890134
0.0798357
0.0715328
0.0640393
0.0572931
0.0512358
0.0458124
0.040972
0.0366672
0.0328545
0.0294942
0.0265503
0.0239905
0.0217858
0.019911
0.0183442
0.0170665
0.0160628
0.0153206
0.014831
0.0145877
0.975378
0.926242
0.877434
0.829165
0.781637
0.735041
0.689553
0.645332
0.602517
0.561229
0.521568
0.483613
0.447425
0.413043
0.38049
0.349772
0.320878
0.293786
0.268461
0.244855
0.222915
0.202579
0.18378
0.166447
0.150505
0.13588
0.122493
0.11027
0.0991343
0.0890133
0.0798356
0.0715327
0.0640392
0.057293
0.0512357
0.0458123
0.0409719
0.0366671
0.0328544
0.0294942
0.0265503
0.0239905
0.0217858
0.0199111
0.0183442
0.0170666
0.0160629
0.0153207
0.0148311
0.0145878
0.975378
0.926242
0.877434
0.829165
0.781637
0.735041
0.689553
0.645332
0.602517
0.561229
0.521568
0.483613
0.447425
0.413043
0.38049
0.349772
0.320878
0.293786
0.26846
0.244855
0.222915
0.202579
0.18378
0.166447
0.150505
0.13588
0.122493
0.11027
0.0991342
0.0890132
0.0798355
0.0715326
0.0640391
0.0572929
0.0512356
0.0458123
0.0409718
0.036667
0.0328544
0.0294942
0.0265503
0.0239905
0.0217859
0.0199111
0.0183443
0.0170667
0.0160629
0.0153208
0.0148312
0.0145879
0.975378
0.926242
0.877434
0.829165
0.781637
0.735041
0.689553
0.645332
0.602517
0.561229
0.521568
0.483613
0.447425
0.413043
0.38049
0.349772
0.320878
0.293786
0.26846
0.244855
0.222915
0.202579
0.18378
0.166447
0.150505
0.135879
0.122493
0.11027
0.0991341
0.0890131
0.0798354
0.0715325
0.064039
0.0572929
0.0512355
0.0458122
0.0409718
0.036667
0.0328544
0.0294941
0.0265503
0.0239905
0.0217859
0.0199112
0.0183443
0.0170668
0.016063
0.0153209
0.0148313
0.014588
0.975378
0.926242
0.877434
0.829165
0.781637
0.735041
0.689553
0.645332
0.602517
0.561229
0.521568
0.483613
0.447425
0.413043
0.38049
0.349772
0.320878
0.293786
0.26846
0.244855
0.222915
0.202579
0.18378
0.166447
0.150505
0.135879
0.122493
0.11027
0.099134
0.0890131
0.0798353
0.0715324
0.0640389
0.0572928
0.0512355
0.0458121
0.0409717
0.036667
0.0328544
0.0294942
0.0265504
0.0239906
0.021786
0.0199112
0.0183444
0.0170668
0.0160631
0.015321
0.0148314
0.0145881
0.975378
0.926242
0.877434
0.829165
0.781637
0.735041
0.689553
0.645332
0.602517
0.561229
0.521568
0.483613
0.447425
0.413043
0.38049
0.349772
0.320878
0.293786
0.26846
0.244855
0.222915
0.202579
0.18378
0.166447
0.150505
0.135879
0.122493
0.110269
0.099134
0.089013
0.0798353
0.0715324
0.0640389
0.0572927
0.0512354
0.0458121
0.0409717
0.036667
0.0328544
0.0294942
0.0265504
0.0239906
0.021786
0.0199113
0.0183445
0.017067
0.0160632
0.0153211
0.0148315
0.0145883
0.975378
0.926242
0.877434
0.829165
0.781637
0.735041
0.689553
0.645332
0.602517
0.561229
0.521568
0.483613
0.447425
0.413043
0.38049
0.349772
0.320878
0.293786
0.26846
0.244855
0.222915
0.202579
0.18378
0.166447
0.150505
0.135879
0.122493
0.110269
0.0991339
0.0890129
0.0798352
0.0715323
0.0640388
0.0572927
0.0512354
0.0458121
0.0409717
0.036667
0.0328544
0.0294942
0.0265504
0.0239907
0.0217861
0.0199114
0.0183446
0.0170671
0.0160634
0.0153213
0.0148316
0.0145884
0.975378
0.926242
0.877434
0.829165
0.781637
0.735041
0.689553
0.645332
0.602517
0.561229
0.521568
0.483613
0.447425
0.413043
0.38049
0.349772
0.320878
0.293786
0.26846
0.244855
0.222915
0.202579
0.18378
0.166447
0.150505
0.135879
0.122493
0.110269
0.0991339
0.0890129
0.0798352
0.0715323
0.0640388
0.0572926
0.0512354
0.0458121
0.0409717
0.036667
0.0328544
0.0294942
0.0265505
0.0239907
0.0217862
0.0199115
0.0183447
0.0170672
0.0160635
0.0153214
0.0148318
0.0145885
0.975378
0.926242
0.877434
0.829165
0.781637
0.735041
0.689553
0.645332
0.602517
0.561229
0.521568
0.483613
0.447425
0.413043
0.38049
0.349772
0.320878
0.293786
0.26846
0.244855
0.222915
0.202579
0.18378
0.166447
0.150505
0.135879
0.122493
0.110269
0.0991339
0.0890128
0.0798351
0.0715322
0.0640387
0.0572926
0.0512353
0.045812
0.0409717
0.036667
0.0328544
0.0294943
0.0265505
0.0239908
0.0217863
0.0199116
0.0183448
0.0170673
0.0160636
0.0153215
0.0148319
0.0145887
0.975378
0.926242
0.877434
0.829165
0.781637
0.735041
0.689553
0.645332
0.602517
0.561229
0.521568
0.483613
0.447425
0.413043
0.38049
0.349772
0.320878
0.293786
0.26846
0.244855
0.222915
0.202579
0.18378
0.166447
0.150505
0.135879
0.122493
0.110269
0.0991338
0.0890128
0.0798351
0.0715322
0.0640387
0.0572926
0.0512353
0.045812
0.0409717
0.036667
0.0328544
0.0294943
0.0265506
0.0239909
0.0217864
0.0199117
0.0183449
0.0170674
0.0160637
0.0153217
0.014832
0.0145888
0.975378
0.926242
0.877434
0.829165
0.781637
0.735041
0.689553
0.645332
0.602517
0.561229
0.521568
0.483613
0.447425
0.413043
0.38049
0.349772
0.320878
0.293786
0.26846
0.244855
0.222915
0.202579
0.18378
0.166447
0.150505
0.135879
0.122493
0.110269
0.0991338
0.0890128
0.0798351
0.0715322
0.0640387
0.0572925
0.0512353
0.045812
0.0409717
0.036667
0.0328545
0.0294943
0.0265506
0.0239909
0.0217864
0.0199118
0.018345
0.0170675
0.0160639
0.0153218
0.0148322
0.0145889
0.975378
0.926242
0.877434
0.829165
0.781637
0.735041
0.689553
0.645332
0.602517
0.561229
0.521568
0.483613
0.447425
0.413043
0.38049
0.349772
0.320878
0.293786
0.268461
0.244855
0.222915
0.202579
0.18378
0.166447
0.150505
0.135879
0.122493
0.110269
0.0991338
0.0890127
0.079835
0.0715321
0.0640386
0.0572925
0.0512353
0.045812
0.0409717
0.036667
0.0328545
0.0294944
0.0265507
0.023991
0.0217865
0.0199119
0.0183452
0.0170677
0.016064
0.0153219
0.0148323
0.0145891
0.975378
0.926242
0.877434
0.829165
0.781637
0.735041
0.689553
0.645332
0.602517
0.561229
0.521568
0.483613
0.447425
0.413043
0.38049
0.349772
0.320878
0.293786
0.268461
0.244855
0.222915
0.202579
0.18378
0.166447
0.150505
0.135879
0.122493
0.110269
0.0991337
0.0890127
0.079835
0.0715321
0.0640386
0.0572925
0.0512352
0.045812
0.0409717
0.036667
0.0328545
0.0294944
0.0265507
0.0239911
0.0217866
0.019912
0.0183452
0.0170678
0.0160641
0.015322
0.0148324
0.0145892
)
;

boundaryField
{
    inlet
    {
        type            fixedValue;
        value           uniform 1;
    }
    outlet
    {
        type            zeroGradient;
    }
    lowerWall
    {
        type            zeroGradient;
    }
    upperWall
    {
        type            zeroGradient;
    }
    frontAndBack
    {
        type            empty;
    }
}


// ************************************************************************* //
