/*--------------------------------*- C++ -*----------------------------------*\
  =========                 |
  \\      /  F ield         | OpenFOAM: The Open Source CFD Toolbox
   \\    /   O peration     | Website:  https://openfoam.org
    \\  /    A nd           | Version:  12
     \\/     M anipulation  |
\*---------------------------------------------------------------------------*/
FoamFile
{
    format      ascii;
    class       volScalarField;
    location    "1";
    object      T;
}
// * * * * * * * * * * * * * * * * * * * * * * * * * * * * * * * * * * * * * //

dimensions      [0 0 0 1 0 0 0];

internalField   nonuniform List<scalar> 
1250
(
0.900496
0.737509
0.604021
0.494695
0.405156
0.331824
0.271765
0.222576
0.18229
0.149296
0.122274
0.100143
0.0820171
0.0671722
0.0550142
0.0450568
0.0369016
0.0302225
0.0247523
0.0202722
0.016603
0.0135979
0.0111367
0.00912103
0.00747017
0.00611812
0.00501079
0.00410391
0.00336119
0.00275293
0.0022548
0.00184688
0.00151285
0.00123937
0.00101548
0.000832248
0.000682343
0.000559776
0.000459651
0.000377968
0.000311465
0.00025749
0.000213888
0.00017892
0.000151194
0.000129603
0.000113288
0.000101597
9.40618e-05
9.03769e-05
0.900496
0.737509
0.604021
0.494695
0.405156
0.331824
0.271765
0.222576
0.18229
0.149296
0.122274
0.100143
0.0820171
0.0671722
0.0550142
0.0450568
0.0369016
0.0302225
0.0247523
0.0202722
0.016603
0.0135979
0.0111367
0.00912103
0.00747017
0.00611811
0.00501079
0.00410391
0.00336119
0.00275293
0.00225479
0.00184687
0.00151284
0.00123935
0.00101547
0.000832231
0.000682325
0.000559756
0.000459629
0.000377943
0.000311439
0.000257462
0.000213859
0.00017889
0.000151163
0.000129573
0.000113258
0.000101569
9.40394e-05
9.03724e-05
0.900496
0.737509
0.604021
0.494695
0.405156
0.331824
0.271765
0.222576
0.18229
0.149296
0.122274
0.100143
0.0820171
0.0671722
0.0550142
0.0450568
0.0369016
0.0302225
0.0247523
0.0202722
0.016603
0.0135979
0.0111367
0.00912103
0.00747016
0.00611811
0.00501079
0.0041039
0.00336118
0.00275292
0.00225479
0.00184687
0.00151284
0.00123935
0.00101546
0.000832223
0.000682315
0.000559746
0.000459618
0.000377932
0.000311427
0.000257449
0.000213846
0.000178877
0.00015115
0.00012956
0.000113246
0.000101559
9.40327e-05
9.03677e-05
0.900496
0.737509
0.604021
0.494695
0.405156
0.331824
0.271765
0.222576
0.18229
0.149296
0.122274
0.100143
0.0820171
0.0671722
0.0550142
0.0450568
0.0369016
0.0302225
0.0247523
0.0202722
0.016603
0.0135979
0.0111367
0.00912102
0.00747016
0.00611811
0.00501079
0.0041039
0.00336118
0.00275292
0.00225479
0.00184686
0.00151283
0.00123934
0.00101545
0.000832216
0.000682308
0.000559738
0.000459609
0.000377923
0.000311418
0.00025744
0.000213836
0.000178868
0.000151141
0.000129551
0.000113239
0.000101553
9.40277e-05
9.03634e-05
0.900496
0.737509
0.604021
0.494695
0.405156
0.331824
0.271765
0.222576
0.18229
0.149296
0.122274
0.100143
0.0820171
0.0671722
0.0550142
0.0450568
0.0369016
0.0302225
0.0247523
0.0202722
0.016603
0.0135979
0.0111367
0.00912102
0.00747016
0.00611811
0.00501078
0.0041039
0.00336118
0.00275292
0.00225478
0.00184686
0.00151283
0.00123934
0.00101545
0.00083221
0.000682302
0.000559731
0.000459602
0.000377915
0.00031141
0.000257432
0.000213828
0.00017886
0.000151134
0.000129545
0.000113233
0.000101548
9.40239e-05
9.03601e-05
0.900496
0.737509
0.604021
0.494695
0.405156
0.331824
0.271765
0.222576
0.18229
0.149296
0.122274
0.100143
0.0820171
0.0671722
0.0550142
0.0450568
0.0369016
0.0302225
0.0247523
0.0202722
0.016603
0.0135979
0.0111367
0.00912102
0.00747016
0.00611811
0.00501078
0.0041039
0.00336118
0.00275291
0.00225478
0.00184685
0.00151282
0.00123933
0.00101544
0.000832205
0.000682296
0.000559726
0.000459596
0.00037791
0.000311404
0.000257427
0.000213823
0.000178855
0.00015113
0.000129541
0.00011323
0.000101545
9.40216e-05
9.03581e-05
0.900496
0.737509
0.604021
0.494695
0.405156
0.331824
0.271765
0.222576
0.18229
0.149296
0.122274
0.100143
0.0820171
0.0671722
0.0550142
0.0450568
0.0369016
0.0302225
0.0247523
0.0202722
0.016603
0.0135979
0.0111367
0.00912102
0.00747016
0.0061181
0.00501078
0.00410389
0.00336117
0.00275291
0.00225478
0.00184685
0.00151282
0.00123933
0.00101544
0.000832201
0.000682292
0.000559721
0.000459592
0.000377905
0.0003114
0.000257423
0.00021382
0.000178852
0.000151127
0.000129539
0.000113228
0.000101544
9.40209e-05
9.03576e-05
0.900496
0.737509
0.604021
0.494695
0.405156
0.331824
0.271765
0.222576
0.18229
0.149296
0.122274
0.100143
0.0820171
0.0671722
0.0550142
0.0450568
0.0369016
0.0302225
0.0247523
0.0202722
0.016603
0.0135979
0.0111367
0.00912102
0.00747016
0.0061181
0.00501078
0.00410389
0.00336117
0.00275291
0.00225477
0.00184685
0.00151282
0.00123932
0.00101543
0.000832198
0.000682289
0.000559718
0.000459589
0.000377903
0.000311398
0.000257421
0.000213818
0.000178851
0.000151126
0.000129539
0.000113228
0.000101545
9.40221e-05
9.0359e-05
0.900496
0.737509
0.604021
0.494695
0.405156
0.331824
0.271765
0.222576
0.18229
0.149296
0.122274
0.100143
0.0820171
0.0671722
0.0550142
0.0450568
0.0369016
0.0302225
0.0247523
0.0202722
0.016603
0.0135979
0.0111367
0.00912102
0.00747015
0.0061181
0.00501078
0.00410389
0.00336117
0.0027529
0.00225477
0.00184685
0.00151281
0.00123932
0.00101543
0.000832195
0.000682287
0.000559716
0.000459588
0.000377902
0.000311397
0.000257421
0.000213818
0.000178852
0.000151128
0.000129541
0.000113231
0.000101548
9.40252e-05
9.03622e-05
0.900496
0.737509
0.604021
0.494695
0.405156
0.331824
0.271765
0.222576
0.18229
0.149296
0.122274
0.100143
0.0820171
0.0671722
0.0550142
0.0450568
0.0369016
0.0302225
0.0247523
0.0202722
0.016603
0.0135979
0.0111367
0.00912102
0.00747015
0.0061181
0.00501077
0.00410389
0.00336117
0.0027529
0.00225477
0.00184684
0.00151281
0.00123932
0.00101543
0.000832194
0.000682286
0.000559716
0.000459588
0.000377902
0.000311398
0.000257422
0.000213821
0.000178855
0.000151131
0.000129545
0.000113235
0.000101553
9.40303e-05
9.03674e-05
0.900496
0.737509
0.604021
0.494695
0.405156
0.331824
0.271765
0.222576
0.18229
0.149296
0.122274
0.100143
0.0820171
0.0671722
0.0550142
0.0450568
0.0369016
0.0302225
0.0247523
0.0202722
0.016603
0.0135979
0.0111367
0.00912102
0.00747015
0.0061181
0.00501077
0.00410389
0.00336116
0.0027529
0.00225477
0.00184684
0.00151281
0.00123932
0.00101543
0.000832194
0.000682286
0.000559717
0.000459589
0.000377904
0.000311401
0.000257426
0.000213825
0.00017886
0.000151137
0.000129551
0.000113242
0.00010156
9.40376e-05
9.03747e-05
0.900496
0.737509
0.604021
0.494695
0.405156
0.331824
0.271765
0.222576
0.18229
0.149296
0.122274
0.100143
0.0820171
0.0671722
0.0550142
0.0450568
0.0369016
0.0302225
0.0247523
0.0202722
0.016603
0.0135979
0.0111367
0.00912101
0.00747015
0.00611809
0.00501077
0.00410388
0.00336116
0.0027529
0.00225477
0.00184684
0.00151281
0.00123932
0.00101543
0.000832194
0.000682287
0.000559719
0.000459592
0.000377908
0.000311406
0.000257431
0.000213831
0.000178867
0.000151145
0.00012956
0.000113251
0.000101569
9.4047e-05
9.0384e-05
0.900496
0.737509
0.604021
0.494695
0.405156
0.331824
0.271765
0.222576
0.18229
0.149296
0.122274
0.100143
0.0820171
0.0671723
0.0550142
0.0450568
0.0369016
0.0302225
0.0247523
0.0202722
0.016603
0.0135979
0.0111367
0.00912101
0.00747015
0.00611809
0.00501077
0.00410388
0.00336116
0.0027529
0.00225476
0.00184684
0.00151281
0.00123932
0.00101543
0.000832196
0.00068229
0.000559722
0.000459596
0.000377913
0.000311412
0.000257439
0.00021384
0.000178876
0.000151155
0.00012957
0.000113262
0.00010158
9.40585e-05
9.03955e-05
0.900496
0.737509
0.604021
0.494695
0.405156
0.331824
0.271765
0.222576
0.18229
0.149296
0.122274
0.100143
0.0820171
0.0671722
0.0550142
0.0450568
0.0369016
0.0302225
0.0247523
0.0202722
0.016603
0.0135979
0.0111367
0.00912101
0.00747014
0.00611809
0.00501077
0.00410388
0.00336116
0.0027529
0.00225476
0.00184684
0.00151281
0.00123932
0.00101543
0.000832199
0.000682294
0.000559727
0.000459602
0.00037792
0.00031142
0.000257448
0.00021385
0.000178887
0.000151167
0.000129583
0.000113275
0.000101594
9.40722e-05
9.04092e-05
0.900496
0.737509
0.604021
0.494695
0.405156
0.331824
0.271765
0.222576
0.18229
0.149296
0.122274
0.100143
0.0820171
0.0671722
0.0550142
0.0450568
0.0369016
0.0302225
0.0247523
0.0202722
0.016603
0.0135979
0.0111367
0.00912101
0.00747014
0.00611809
0.00501077
0.00410388
0.00336116
0.0027529
0.00225476
0.00184684
0.00151281
0.00123932
0.00101544
0.000832203
0.000682299
0.000559733
0.00045961
0.000377929
0.00031143
0.000257459
0.000213862
0.000178901
0.000151181
0.000129598
0.000113291
0.00010161
9.40881e-05
9.04249e-05
0.900496
0.737509
0.604021
0.494695
0.405156
0.331824
0.271765
0.222576
0.18229
0.149296
0.122274
0.100143
0.0820172
0.0671722
0.0550142
0.0450568
0.0369016
0.0302225
0.0247523
0.0202722
0.016603
0.0135979
0.0111367
0.00912101
0.00747014
0.00611809
0.00501076
0.00410388
0.00336116
0.0027529
0.00225476
0.00184684
0.00151281
0.00123933
0.00101544
0.000832208
0.000682305
0.000559741
0.000459618
0.000377939
0.000311442
0.000257472
0.000213876
0.000178916
0.000151197
0.000129615
0.000113308
0.000101628
9.41062e-05
9.04429e-05
0.900496
0.737509
0.604021
0.494695
0.405156
0.331824
0.271765
0.222576
0.18229
0.149296
0.122274
0.100143
0.0820171
0.0671722
0.0550142
0.0450568
0.0369016
0.0302225
0.0247523
0.0202722
0.016603
0.0135979
0.0111367
0.009121
0.00747014
0.00611809
0.00501076
0.00410388
0.00336116
0.0027529
0.00225477
0.00184684
0.00151282
0.00123933
0.00101545
0.000832214
0.000682313
0.00055975
0.000459629
0.000377951
0.000311455
0.000257486
0.000213892
0.000178933
0.000151215
0.000129634
0.000113328
0.000101648
9.41265e-05
9.0463e-05
0.900496
0.737509
0.604021
0.494695
0.405157
0.331824
0.271765
0.222576
0.18229
0.149296
0.122274
0.100143
0.0820171
0.0671722
0.0550142
0.0450568
0.0369016
0.0302225
0.0247523
0.0202722
0.016603
0.0135979
0.0111367
0.009121
0.00747014
0.00611809
0.00501076
0.00410388
0.00336116
0.0027529
0.00225477
0.00184685
0.00151282
0.00123933
0.00101545
0.000832222
0.000682321
0.00055976
0.000459641
0.000377964
0.00031147
0.000257503
0.00021391
0.000178952
0.000151236
0.000129655
0.00011335
0.00010167
9.41491e-05
9.04853e-05
0.900496
0.737509
0.604021
0.494695
0.405157
0.331824
0.271765
0.222576
0.18229
0.149296
0.122274
0.100143
0.0820171
0.0671722
0.0550142
0.0450568
0.0369016
0.0302225
0.0247523
0.0202722
0.016603
0.0135979
0.0111367
0.009121
0.00747014
0.00611809
0.00501076
0.00410388
0.00336116
0.0027529
0.00225477
0.00184685
0.00151283
0.00123934
0.00101546
0.00083223
0.000682332
0.000559772
0.000459654
0.00037798
0.000311487
0.000257521
0.00021393
0.000178974
0.000151258
0.000129679
0.000113375
0.000101695
9.41738e-05
9.05098e-05
0.900496
0.737509
0.604021
0.494695
0.405156
0.331824
0.271765
0.222576
0.18229
0.149296
0.122274
0.100143
0.0820171
0.0671722
0.0550142
0.0450568
0.0369016
0.0302225
0.0247523
0.0202722
0.016603
0.0135979
0.0111367
0.009121
0.00747014
0.00611809
0.00501076
0.00410388
0.00336116
0.0027529
0.00225477
0.00184685
0.00151283
0.00123935
0.00101547
0.00083224
0.000682343
0.000559785
0.000459669
0.000377996
0.000311505
0.000257542
0.000213952
0.000178997
0.000151283
0.000129705
0.000113401
0.000101722
9.42007e-05
9.05364e-05
0.900496
0.737509
0.604021
0.494695
0.405156
0.331824
0.271765
0.222576
0.18229
0.149296
0.122274
0.100143
0.0820171
0.0671722
0.0550142
0.0450568
0.0369016
0.0302225
0.0247523
0.0202722
0.016603
0.0135979
0.0111367
0.009121
0.00747014
0.00611809
0.00501077
0.00410388
0.00336116
0.00275291
0.00225478
0.00184686
0.00151284
0.00123935
0.00101548
0.000832251
0.000682356
0.000559799
0.000459686
0.000378015
0.000311526
0.000257564
0.000213976
0.000179023
0.00015131
0.000129732
0.00011343
0.000101751
9.42299e-05
9.05652e-05
0.900496
0.737509
0.604021
0.494695
0.405157
0.331824
0.271765
0.222576
0.18229
0.149296
0.122274
0.100143
0.0820171
0.0671722
0.0550142
0.0450568
0.0369016
0.0302225
0.0247523
0.0202722
0.016603
0.0135979
0.0111367
0.009121
0.00747014
0.00611809
0.00501077
0.00410388
0.00336117
0.00275291
0.00225478
0.00184687
0.00151284
0.00123936
0.00101549
0.000832263
0.00068237
0.000559815
0.000459704
0.000378035
0.000311548
0.000257588
0.000214002
0.00017905
0.000151339
0.000129762
0.00011346
0.000101782
9.42612e-05
9.05963e-05
0.900496
0.737509
0.604021
0.494695
0.405156
0.331824
0.271765
0.222576
0.18229
0.149296
0.122274
0.100143
0.0820171
0.0671722
0.0550142
0.0450568
0.0369016
0.0302225
0.0247523
0.0202722
0.016603
0.0135979
0.0111367
0.009121
0.00747014
0.00611809
0.00501077
0.00410389
0.00336117
0.00275291
0.00225479
0.00184687
0.00151285
0.00123937
0.0010155
0.000832276
0.000682385
0.000559833
0.000459723
0.000378057
0.000311572
0.000257614
0.000214029
0.00017908
0.00015137
0.000129795
0.000113493
0.000101816
9.42948e-05
9.06295e-05
0.900496
0.737509
0.604021
0.494695
0.405156
0.331824
0.271765
0.222576
0.18229
0.149296
0.122274
0.100143
0.0820171
0.0671722
0.0550142
0.0450568
0.0369016
0.0302225
0.0247523
0.0202722
0.016603
0.0135979
0.0111367
0.00912101
0.00747014
0.00611809
0.00501077
0.00410389
0.00336117
0.00275292
0.00225479
0.00184688
0.00151286
0.00123938
0.00101551
0.000832291
0.000682401
0.000559852
0.000459744
0.00037808
0.000311597
0.000257641
0.000214059
0.000179111
0.000151403
0.000129829
0.000113529
0.000101852
9.43307e-05
9.06651e-05
0.900496
0.737509
0.604021
0.494695
0.405156
0.331824
0.271765
0.222576
0.18229
0.149296
0.122274
0.100143
0.0820171
0.0671722
0.0550142
0.0450568
0.0369016
0.0302225
0.0247523
0.0202722
0.016603
0.0135979
0.0111367
0.00912101
0.00747014
0.00611809
0.00501077
0.00410389
0.00336118
0.00275292
0.0022548
0.00184689
0.00151287
0.0012394
0.00101552
0.000832306
0.000682419
0.000559872
0.000459767
0.000378105
0.000311624
0.000257671
0.000214091
0.000179145
0.000151438
0.000129865
0.000113566
0.00010189
9.43689e-05
9.07029e-05
)
;

boundaryField
{
    inlet
    {
        type            fixedValue;
        value           uniform 1;
    }
    outlet
    {
        type            zeroGradient;
    }
    lowerWall
    {
        type            zeroGradient;
    }
    upperWall
    {
        type            zeroGradient;
    }
    frontAndBack
    {
        type            empty;
    }
}


// ************************************************************************* //
