/*--------------------------------*- C++ -*----------------------------------*\
  =========                 |
  \\      /  F ield         | OpenFOAM: The Open Source CFD Toolbox
   \\    /   O peration     | Website:  https://openfoam.org
    \\  /    A nd           | Version:  12
     \\/     M anipulation  |
\*---------------------------------------------------------------------------*/
FoamFile
{
    format      ascii;
    class       volScalarField;
    location    "10";
    object      T;
}
// * * * * * * * * * * * * * * * * * * * * * * * * * * * * * * * * * * * * * //

dimensions      [0 0 0 1 0 0 0];

internalField   nonuniform List<scalar> 
1250
(
0.981457
0.944416
0.907506
0.870813
0.834422
0.798416
0.762873
0.72787
0.693478
0.659764
0.626791
0.594615
0.563289
0.532857
0.503361
0.474835
0.447307
0.4208
0.395332
0.370914
0.347553
0.325251
0.304005
0.283809
0.264653
0.246521
0.229396
0.21326
0.198089
0.18386
0.170548
0.158124
0.146563
0.135836
0.125914
0.116771
0.108379
0.100711
0.0937417
0.0874461
0.0818012
0.0767856
0.0723794
0.0685646
0.0653252
0.0626473
0.0605193
0.0589317
0.0578773
0.0573514
0.981457
0.944416
0.907506
0.870813
0.834422
0.798416
0.762873
0.72787
0.693478
0.659764
0.626791
0.594615
0.563289
0.532857
0.503361
0.474835
0.447307
0.4208
0.395332
0.370914
0.347553
0.325251
0.304005
0.283809
0.264653
0.246521
0.229396
0.21326
0.198089
0.18386
0.170548
0.158124
0.146563
0.135836
0.125914
0.116771
0.108379
0.100711
0.0937417
0.087446
0.0818012
0.0767856
0.0723794
0.0685645
0.0653252
0.0626473
0.0605192
0.0589314
0.057877
0.0573512
0.981457
0.944416
0.907506
0.870813
0.834422
0.798416
0.762873
0.72787
0.693478
0.659764
0.626791
0.594615
0.563289
0.532857
0.503361
0.474835
0.447307
0.4208
0.395332
0.370913
0.347552
0.325251
0.304005
0.283809
0.264652
0.24652
0.229396
0.21326
0.198089
0.18386
0.170547
0.158124
0.146563
0.135835
0.125914
0.116771
0.108379
0.100711
0.0937416
0.0874459
0.0818011
0.0767855
0.0723793
0.0685644
0.0653251
0.0626473
0.0605192
0.0589315
0.057877
0.0573511
0.981457
0.944416
0.907506
0.870813
0.834422
0.798416
0.762873
0.72787
0.693478
0.659764
0.626791
0.594615
0.563288
0.532857
0.503361
0.474835
0.447307
0.4208
0.395331
0.370913
0.347552
0.32525
0.304005
0.283809
0.264652
0.24652
0.229396
0.21326
0.198089
0.18386
0.170547
0.158124
0.146563
0.135835
0.125914
0.116771
0.108379
0.100711
0.0937414
0.0874458
0.081801
0.0767853
0.0723791
0.0685643
0.0653249
0.0626471
0.0605191
0.0589314
0.0578769
0.0573509
0.981457
0.944416
0.907506
0.870813
0.834422
0.798416
0.762873
0.72787
0.693478
0.659764
0.62679
0.594615
0.563288
0.532857
0.503361
0.474835
0.447306
0.4208
0.395331
0.370913
0.347552
0.32525
0.304005
0.283809
0.264652
0.24652
0.229396
0.213259
0.198089
0.18386
0.170547
0.158124
0.146562
0.135835
0.125914
0.116771
0.108379
0.100711
0.0937412
0.0874456
0.0818008
0.0767852
0.072379
0.0685642
0.0653248
0.0626469
0.0605189
0.0589313
0.0578768
0.0573508
0.981457
0.944416
0.907506
0.870813
0.834422
0.798416
0.762873
0.72787
0.693478
0.659764
0.62679
0.594615
0.563288
0.532857
0.503361
0.474834
0.447306
0.420799
0.395331
0.370913
0.347552
0.32525
0.304004
0.283809
0.264652
0.24652
0.229396
0.213259
0.198088
0.18386
0.170547
0.158123
0.146562
0.135835
0.125914
0.116771
0.108379
0.100711
0.093741
0.0874454
0.0818006
0.076785
0.0723788
0.068564
0.0653246
0.0626468
0.0605188
0.0589311
0.0578767
0.0573507
0.981457
0.944416
0.907505
0.870813
0.834422
0.798416
0.762873
0.72787
0.693477
0.659763
0.62679
0.594614
0.563288
0.532856
0.50336
0.474834
0.447306
0.420799
0.395331
0.370912
0.347551
0.325249
0.304004
0.283808
0.264651
0.246519
0.229395
0.213259
0.198088
0.183859
0.170546
0.158123
0.146562
0.135835
0.125913
0.11677
0.108378
0.10071
0.0937408
0.0874452
0.0818004
0.0767848
0.0723786
0.0685638
0.0653245
0.0626466
0.0605186
0.058931
0.0578765
0.0573505
0.981457
0.944416
0.907505
0.870813
0.834422
0.798416
0.762873
0.727869
0.693477
0.659763
0.62679
0.594614
0.563287
0.532856
0.50336
0.474834
0.447306
0.420799
0.39533
0.370912
0.347551
0.325249
0.304004
0.283808
0.264651
0.246519
0.229395
0.213258
0.198088
0.183859
0.170546
0.158123
0.146561
0.135834
0.125913
0.11677
0.108378
0.10071
0.0937405
0.0874449
0.0818001
0.0767846
0.0723784
0.0685636
0.0653243
0.0626464
0.0605184
0.0589308
0.0578764
0.0573504
0.981457
0.944416
0.907505
0.870812
0.834422
0.798415
0.762873
0.727869
0.693477
0.659763
0.62679
0.594614
0.563287
0.532856
0.50336
0.474833
0.447305
0.420798
0.39533
0.370912
0.347551
0.325249
0.304003
0.283807
0.264651
0.246519
0.229394
0.213258
0.198087
0.183859
0.170546
0.158122
0.146561
0.135834
0.125913
0.11677
0.108378
0.10071
0.0937403
0.0874447
0.0817999
0.0767843
0.0723782
0.0685634
0.0653241
0.0626463
0.0605183
0.0589306
0.0578762
0.0573502
0.981457
0.944416
0.907505
0.870812
0.834422
0.798415
0.762872
0.727869
0.693477
0.659763
0.626789
0.594614
0.563287
0.532856
0.503359
0.474833
0.447305
0.420798
0.39533
0.370911
0.34755
0.325248
0.304003
0.283807
0.26465
0.246518
0.229394
0.213258
0.198087
0.183858
0.170545
0.158122
0.146561
0.135834
0.125912
0.11677
0.108377
0.10071
0.09374
0.0874444
0.0817997
0.0767841
0.072378
0.0685632
0.0653239
0.0626461
0.0605181
0.0589305
0.0578761
0.0573501
0.981457
0.944416
0.907505
0.870812
0.834422
0.798415
0.762872
0.727869
0.693477
0.659763
0.626789
0.594613
0.563287
0.532855
0.503359
0.474833
0.447305
0.420798
0.395329
0.370911
0.34755
0.325248
0.304003
0.283807
0.26465
0.246518
0.229394
0.213257
0.198087
0.183858
0.170545
0.158122
0.14656
0.135833
0.125912
0.116769
0.108377
0.100709
0.0937398
0.0874442
0.0817994
0.0767839
0.0723778
0.068563
0.0653237
0.0626459
0.060518
0.0589303
0.0578759
0.05735
0.981457
0.944416
0.907505
0.870812
0.834421
0.798415
0.762872
0.727869
0.693476
0.659762
0.626789
0.594613
0.563286
0.532855
0.503359
0.474833
0.447304
0.420797
0.395329
0.370911
0.34755
0.325248
0.304002
0.283806
0.26465
0.246518
0.229393
0.213257
0.198086
0.183858
0.170545
0.158121
0.14656
0.135833
0.125912
0.116769
0.108377
0.100709
0.0937395
0.087444
0.0817992
0.0767837
0.0723776
0.0685629
0.0653236
0.0626458
0.0605178
0.0589302
0.0578758
0.0573498
0.981457
0.944416
0.907505
0.870812
0.834421
0.798415
0.762872
0.727869
0.693476
0.659762
0.626789
0.594613
0.563286
0.532855
0.503359
0.474832
0.447304
0.420797
0.395329
0.370911
0.347549
0.325248
0.304002
0.283806
0.264649
0.246517
0.229393
0.213257
0.198086
0.183857
0.170544
0.158121
0.14656
0.135833
0.125912
0.116769
0.108377
0.100709
0.0937393
0.0874438
0.0817991
0.0767836
0.0723774
0.0685627
0.0653234
0.0626457
0.0605177
0.0589301
0.0578757
0.0573497
0.981457
0.944416
0.907505
0.870812
0.834421
0.798415
0.762872
0.727869
0.693476
0.659762
0.626789
0.594613
0.563286
0.532855
0.503359
0.474832
0.447304
0.420797
0.395328
0.37091
0.347549
0.325247
0.304002
0.283806
0.264649
0.246517
0.229393
0.213257
0.198086
0.183857
0.170544
0.158121
0.14656
0.135833
0.125911
0.116769
0.108377
0.100709
0.0937392
0.0874436
0.0817989
0.0767834
0.0723773
0.0685626
0.0653233
0.0626456
0.0605176
0.05893
0.0578756
0.0573496
0.981457
0.944416
0.907505
0.870812
0.834421
0.798415
0.762872
0.727868
0.693476
0.659762
0.626788
0.594613
0.563286
0.532854
0.503358
0.474832
0.447304
0.420797
0.395328
0.37091
0.347549
0.325247
0.304002
0.283806
0.264649
0.246517
0.229393
0.213256
0.198086
0.183857
0.170544
0.158121
0.146559
0.135832
0.125911
0.116768
0.108376
0.100708
0.093739
0.0874435
0.0817988
0.0767833
0.0723772
0.0685625
0.0653232
0.0626455
0.0605175
0.0589299
0.0578755
0.0573496
0.981457
0.944416
0.907505
0.870812
0.834421
0.798415
0.762872
0.727868
0.693476
0.659762
0.626788
0.594612
0.563286
0.532854
0.503358
0.474832
0.447304
0.420797
0.395328
0.37091
0.347549
0.325247
0.304001
0.283806
0.264649
0.246517
0.229392
0.213256
0.198085
0.183857
0.170544
0.158121
0.146559
0.135832
0.125911
0.116768
0.108376
0.100708
0.0937389
0.0874434
0.0817987
0.0767832
0.0723771
0.0685624
0.0653232
0.0626454
0.0605175
0.0589299
0.0578755
0.0573495
0.981457
0.944416
0.907505
0.870812
0.834421
0.798415
0.762872
0.727868
0.693476
0.659762
0.626788
0.594612
0.563286
0.532854
0.503358
0.474832
0.447304
0.420797
0.395328
0.37091
0.347549
0.325247
0.304001
0.283805
0.264649
0.246517
0.229392
0.213256
0.198085
0.183856
0.170544
0.15812
0.146559
0.135832
0.125911
0.116768
0.108376
0.100708
0.0937388
0.0874433
0.0817986
0.0767831
0.0723771
0.0685624
0.0653231
0.0626454
0.0605174
0.0589299
0.0578755
0.0573495
0.981457
0.944416
0.907505
0.870812
0.834421
0.798415
0.762872
0.727868
0.693476
0.659762
0.626788
0.594612
0.563286
0.532854
0.503358
0.474832
0.447303
0.420796
0.395328
0.37091
0.347549
0.325247
0.304001
0.283805
0.264648
0.246516
0.229392
0.213256
0.198085
0.183856
0.170544
0.15812
0.146559
0.135832
0.125911
0.116768
0.108376
0.100708
0.0937387
0.0874432
0.0817985
0.0767831
0.072377
0.0685623
0.0653231
0.0626454
0.0605174
0.0589298
0.0578755
0.0573495
0.981457
0.944415
0.907505
0.870812
0.834421
0.798415
0.762872
0.727868
0.693476
0.659762
0.626788
0.594612
0.563286
0.532854
0.503358
0.474832
0.447303
0.420796
0.395328
0.37091
0.347549
0.325247
0.304001
0.283805
0.264648
0.246516
0.229392
0.213256
0.198085
0.183856
0.170543
0.15812
0.146559
0.135832
0.125911
0.116768
0.108376
0.100708
0.0937386
0.0874432
0.0817985
0.0767831
0.072377
0.0685623
0.0653231
0.0626453
0.0605174
0.0589298
0.0578755
0.0573495
0.981457
0.944415
0.907505
0.870812
0.834421
0.798415
0.762872
0.727868
0.693476
0.659762
0.626788
0.594612
0.563286
0.532854
0.503358
0.474832
0.447303
0.420796
0.395328
0.37091
0.347548
0.325246
0.304001
0.283805
0.264648
0.246516
0.229392
0.213256
0.198085
0.183856
0.170543
0.15812
0.146559
0.135832
0.125911
0.116768
0.108376
0.100708
0.0937386
0.0874431
0.0817985
0.076783
0.072377
0.0685623
0.0653231
0.0626454
0.0605174
0.0589298
0.0578755
0.0573495
0.981457
0.944415
0.907505
0.870812
0.834421
0.798415
0.762872
0.727868
0.693476
0.659762
0.626788
0.594612
0.563286
0.532854
0.503358
0.474832
0.447303
0.420796
0.395328
0.37091
0.347548
0.325246
0.304001
0.283805
0.264648
0.246516
0.229392
0.213256
0.198085
0.183856
0.170543
0.15812
0.146559
0.135832
0.125911
0.116768
0.108376
0.100708
0.0937386
0.0874431
0.0817985
0.076783
0.072377
0.0685623
0.0653231
0.0626454
0.0605174
0.0589299
0.0578755
0.0573495
0.981457
0.944416
0.907505
0.870812
0.834421
0.798415
0.762872
0.727868
0.693476
0.659762
0.626788
0.594612
0.563286
0.532854
0.503358
0.474832
0.447303
0.420796
0.395328
0.37091
0.347548
0.325246
0.304001
0.283805
0.264648
0.246516
0.229392
0.213255
0.198085
0.183856
0.170543
0.15812
0.146559
0.135832
0.125911
0.116768
0.108376
0.100708
0.0937386
0.0874431
0.0817985
0.076783
0.072377
0.0685623
0.0653231
0.0626454
0.0605175
0.0589299
0.0578755
0.0573496
0.981457
0.944416
0.907505
0.870812
0.834421
0.798415
0.762872
0.727868
0.693476
0.659762
0.626788
0.594612
0.563286
0.532854
0.503358
0.474832
0.447303
0.420796
0.395328
0.37091
0.347548
0.325246
0.304001
0.283805
0.264648
0.246516
0.229392
0.213255
0.198085
0.183856
0.170543
0.15812
0.146559
0.135832
0.125911
0.116768
0.108376
0.100708
0.0937385
0.0874431
0.0817985
0.076783
0.072377
0.0685624
0.0653231
0.0626454
0.0605175
0.0589299
0.0578756
0.0573496
0.981457
0.944416
0.907505
0.870812
0.834421
0.798415
0.762872
0.727868
0.693476
0.659762
0.626788
0.594612
0.563286
0.532854
0.503358
0.474832
0.447303
0.420796
0.395328
0.370909
0.347548
0.325246
0.304001
0.283805
0.264648
0.246516
0.229392
0.213255
0.198085
0.183856
0.170543
0.15812
0.146559
0.135832
0.125911
0.116768
0.108376
0.100708
0.0937386
0.0874431
0.0817985
0.0767831
0.072377
0.0685624
0.0653232
0.0626455
0.0605176
0.05893
0.0578756
0.0573497
0.981457
0.944416
0.907505
0.870812
0.834421
0.798415
0.762872
0.727868
0.693476
0.659762
0.626788
0.594612
0.563286
0.532854
0.503358
0.474832
0.447303
0.420796
0.395328
0.37091
0.347548
0.325246
0.304001
0.283805
0.264648
0.246516
0.229392
0.213255
0.198085
0.183856
0.170543
0.15812
0.146559
0.135832
0.125911
0.116768
0.108376
0.100708
0.0937386
0.0874431
0.0817985
0.0767831
0.0723771
0.0685624
0.0653232
0.0626455
0.0605176
0.05893
0.0578757
0.0573497
)
;

boundaryField
{
    inlet
    {
        type            fixedValue;
        value           uniform 1;
    }
    outlet
    {
        type            zeroGradient;
    }
    lowerWall
    {
        type            zeroGradient;
    }
    upperWall
    {
        type            zeroGradient;
    }
    frontAndBack
    {
        type            empty;
    }
}


// ************************************************************************* //
