/*--------------------------------*- C++ -*----------------------------------*\
  =========                 |
  \\      /  F ield         | OpenFOAM: The Open Source CFD Toolbox
   \\    /   O peration     | Website:  https://openfoam.org
    \\  /    A nd           | Version:  12
     \\/     M anipulation  |
\*---------------------------------------------------------------------------*/
FoamFile
{
    format      ascii;
    class       volScalarField;
    location    "16";
    object      T;
}
// * * * * * * * * * * * * * * * * * * * * * * * * * * * * * * * * * * * * * //

dimensions      [0 0 0 1 0 0 0];

internalField   nonuniform List<scalar> 
1250
(
0.985639
0.956938
0.928299
0.899764
0.871373
0.843167
0.815185
0.787465
0.760046
0.732964
0.706254
0.679951
0.654085
0.628689
0.603792
0.57942
0.555601
0.532356
0.50971
0.487682
0.46629
0.445551
0.425481
0.406092
0.387397
0.369404
0.352123
0.33556
0.319721
0.30461
0.290231
0.276585
0.263674
0.251497
0.240054
0.229344
0.219365
0.210116
0.201593
0.193794
0.186715
0.180355
0.17471
0.169778
0.165555
0.16204
0.159231
0.157126
0.155723
0.155021
0.985639
0.956938
0.928299
0.899764
0.871373
0.843167
0.815185
0.787465
0.760046
0.732964
0.706254
0.679951
0.654085
0.628689
0.603792
0.57942
0.555601
0.532356
0.50971
0.487681
0.46629
0.445551
0.425481
0.406092
0.387397
0.369404
0.352123
0.33556
0.319721
0.30461
0.290231
0.276585
0.263673
0.251497
0.240054
0.229344
0.219365
0.210116
0.201593
0.193794
0.186715
0.180355
0.17471
0.169778
0.165555
0.16204
0.159231
0.157125
0.155722
0.155021
0.985639
0.956938
0.928299
0.899764
0.871373
0.843167
0.815185
0.787465
0.760046
0.732964
0.706254
0.679951
0.654085
0.628689
0.603792
0.57942
0.5556
0.532356
0.50971
0.487681
0.46629
0.445551
0.425481
0.406092
0.387397
0.369404
0.352123
0.33556
0.319721
0.30461
0.290231
0.276585
0.263673
0.251496
0.240054
0.229344
0.219365
0.210116
0.201593
0.193793
0.186715
0.180355
0.17471
0.169778
0.165555
0.16204
0.159231
0.157125
0.155722
0.155021
0.985639
0.956938
0.928299
0.899764
0.871373
0.843167
0.815185
0.787465
0.760046
0.732964
0.706254
0.679951
0.654085
0.628689
0.603792
0.57942
0.5556
0.532356
0.50971
0.487681
0.46629
0.445551
0.425481
0.406092
0.387397
0.369404
0.352123
0.33556
0.319721
0.30461
0.290231
0.276585
0.263673
0.251496
0.240054
0.229344
0.219365
0.210115
0.201592
0.193793
0.186715
0.180355
0.17471
0.169778
0.165555
0.16204
0.159231
0.157125
0.155722
0.155021
0.985639
0.956938
0.928299
0.899764
0.871373
0.843167
0.815184
0.787465
0.760046
0.732964
0.706254
0.67995
0.654085
0.628689
0.603792
0.57942
0.5556
0.532356
0.509709
0.487681
0.466289
0.445551
0.425481
0.406092
0.387396
0.369404
0.352123
0.33556
0.319721
0.30461
0.290231
0.276585
0.263673
0.251496
0.240053
0.229343
0.219365
0.210115
0.201592
0.193793
0.186715
0.180355
0.17471
0.169777
0.165555
0.16204
0.15923
0.157125
0.155722
0.155021
0.985639
0.956938
0.928299
0.899764
0.871373
0.843167
0.815184
0.787465
0.760046
0.732964
0.706254
0.67995
0.654085
0.628689
0.603791
0.57942
0.5556
0.532356
0.509709
0.487681
0.466289
0.445551
0.42548
0.406092
0.387396
0.369404
0.352122
0.335559
0.319721
0.30461
0.29023
0.276584
0.263673
0.251496
0.240053
0.229343
0.219365
0.210115
0.201592
0.193793
0.186715
0.180354
0.17471
0.169777
0.165555
0.16204
0.15923
0.157125
0.155722
0.15502
0.985639
0.956938
0.928299
0.899764
0.871373
0.843166
0.815184
0.787465
0.760046
0.732964
0.706254
0.67995
0.654085
0.628689
0.603791
0.57942
0.5556
0.532355
0.509709
0.487681
0.466289
0.44555
0.42548
0.406092
0.387396
0.369403
0.352122
0.335559
0.31972
0.304609
0.29023
0.276584
0.263672
0.251496
0.240053
0.229343
0.219364
0.210115
0.201592
0.193792
0.186714
0.180354
0.174709
0.169777
0.165554
0.162039
0.15923
0.157124
0.155721
0.15502
0.985639
0.956938
0.928299
0.899764
0.871373
0.843166
0.815184
0.787465
0.760046
0.732964
0.706254
0.67995
0.654085
0.628688
0.603791
0.579419
0.555599
0.532355
0.509709
0.48768
0.466288
0.44555
0.42548
0.406091
0.387396
0.369403
0.352122
0.335559
0.31972
0.304609
0.29023
0.276584
0.263672
0.251495
0.240052
0.229343
0.219364
0.210114
0.201591
0.193792
0.186714
0.180354
0.174709
0.169776
0.165554
0.162039
0.159229
0.157124
0.155721
0.15502
0.985639
0.956938
0.928299
0.899764
0.871373
0.843166
0.815184
0.787464
0.760045
0.732963
0.706253
0.67995
0.654084
0.628688
0.603791
0.579419
0.555599
0.532355
0.509708
0.48768
0.466288
0.44555
0.425479
0.406091
0.387395
0.369403
0.352121
0.335558
0.319719
0.304609
0.290229
0.276583
0.263672
0.251495
0.240052
0.229342
0.219364
0.210114
0.201591
0.193792
0.186713
0.180353
0.174708
0.169776
0.165553
0.162039
0.159229
0.157124
0.155721
0.155019
0.985639
0.956938
0.928299
0.899764
0.871373
0.843166
0.815184
0.787464
0.760045
0.732963
0.706253
0.679949
0.654084
0.628688
0.60379
0.579419
0.555599
0.532354
0.509708
0.48768
0.466288
0.445549
0.425479
0.40609
0.387395
0.369402
0.352121
0.335558
0.319719
0.304608
0.290229
0.276583
0.263671
0.251494
0.240052
0.229342
0.219363
0.210113
0.20159
0.193791
0.186713
0.180353
0.174708
0.169776
0.165553
0.162038
0.159229
0.157123
0.15572
0.155019
0.985639
0.956938
0.928299
0.899764
0.871372
0.843166
0.815184
0.787464
0.760045
0.732963
0.706253
0.679949
0.654084
0.628688
0.60379
0.579418
0.555598
0.532354
0.509708
0.487679
0.466287
0.445549
0.425479
0.40609
0.387394
0.369402
0.35212
0.335558
0.319719
0.304608
0.290228
0.276582
0.263671
0.251494
0.240051
0.229341
0.219363
0.210113
0.20159
0.193791
0.186713
0.180353
0.174708
0.169775
0.165553
0.162038
0.159228
0.157123
0.15572
0.155019
0.985639
0.956938
0.928299
0.899763
0.871372
0.843166
0.815183
0.787464
0.760045
0.732963
0.706253
0.679949
0.654083
0.628687
0.60379
0.579418
0.555598
0.532354
0.509707
0.487679
0.466287
0.445548
0.425478
0.40609
0.387394
0.369401
0.35212
0.335557
0.319718
0.304607
0.290228
0.276582
0.26367
0.251493
0.240051
0.229341
0.219362
0.210113
0.20159
0.19379
0.186712
0.180352
0.174707
0.169775
0.165552
0.162037
0.159228
0.157122
0.155719
0.155018
0.985639
0.956938
0.928299
0.899763
0.871372
0.843166
0.815183
0.787464
0.760045
0.732962
0.706252
0.679949
0.654083
0.628687
0.603789
0.579418
0.555598
0.532353
0.509707
0.487678
0.466287
0.445548
0.425478
0.406089
0.387393
0.369401
0.35212
0.335557
0.319718
0.304607
0.290228
0.276582
0.26367
0.251493
0.24005
0.22934
0.219362
0.210112
0.201589
0.19379
0.186712
0.180352
0.174707
0.169774
0.165552
0.162037
0.159227
0.157122
0.155719
0.155018
0.985639
0.956938
0.928299
0.899763
0.871372
0.843166
0.815183
0.787464
0.760044
0.732962
0.706252
0.679948
0.654083
0.628687
0.603789
0.579417
0.555597
0.532353
0.509706
0.487678
0.466286
0.445548
0.425477
0.406089
0.387393
0.3694
0.352119
0.335556
0.319717
0.304607
0.290227
0.276581
0.263669
0.251493
0.24005
0.22934
0.219361
0.210112
0.201589
0.193789
0.186711
0.180351
0.174706
0.169774
0.165551
0.162036
0.159227
0.157122
0.155719
0.155017
0.985639
0.956938
0.928299
0.899763
0.871372
0.843165
0.815183
0.787463
0.760044
0.732962
0.706252
0.679948
0.654083
0.628686
0.603789
0.579417
0.555597
0.532353
0.509706
0.487678
0.466286
0.445547
0.425477
0.406088
0.387393
0.3694
0.352119
0.335556
0.319717
0.304606
0.290227
0.276581
0.263669
0.251492
0.240049
0.229339
0.219361
0.210111
0.201588
0.193789
0.186711
0.180351
0.174706
0.169773
0.165551
0.162036
0.159227
0.157121
0.155718
0.155017
0.985639
0.956938
0.928299
0.899763
0.871372
0.843165
0.815183
0.787463
0.760044
0.732962
0.706252
0.679948
0.654082
0.628686
0.603788
0.579417
0.555597
0.532352
0.509706
0.487677
0.466285
0.445547
0.425477
0.406088
0.387392
0.3694
0.352118
0.335555
0.319716
0.304606
0.290226
0.27658
0.263669
0.251492
0.240049
0.229339
0.21936
0.210111
0.201588
0.193789
0.18671
0.18035
0.174706
0.169773
0.165551
0.162036
0.159226
0.157121
0.155718
0.155017
0.985639
0.956938
0.928299
0.899763
0.871372
0.843165
0.815183
0.787463
0.760044
0.732962
0.706252
0.679948
0.654082
0.628686
0.603788
0.579416
0.555596
0.532352
0.509705
0.487677
0.466285
0.445546
0.425476
0.406088
0.387392
0.369399
0.352118
0.335555
0.319716
0.304605
0.290226
0.27658
0.263668
0.251491
0.240048
0.229339
0.21936
0.21011
0.201587
0.193788
0.18671
0.18035
0.174705
0.169773
0.16555
0.162035
0.159226
0.157121
0.155718
0.155016
0.985639
0.956938
0.928299
0.899763
0.871372
0.843165
0.815183
0.787463
0.760044
0.732961
0.706251
0.679947
0.654082
0.628686
0.603788
0.579416
0.555596
0.532352
0.509705
0.487677
0.466285
0.445546
0.425476
0.406087
0.387391
0.369399
0.352118
0.335555
0.319716
0.304605
0.290225
0.276579
0.263668
0.251491
0.240048
0.229338
0.21936
0.21011
0.201587
0.193788
0.18671
0.18035
0.174705
0.169772
0.16555
0.162035
0.159226
0.15712
0.155717
0.155016
0.985639
0.956938
0.928298
0.899763
0.871372
0.843165
0.815183
0.787463
0.760044
0.732961
0.706251
0.679947
0.654082
0.628685
0.603788
0.579416
0.555596
0.532351
0.509705
0.487676
0.466284
0.445546
0.425476
0.406087
0.387391
0.369398
0.352117
0.335554
0.319715
0.304604
0.290225
0.276579
0.263667
0.251491
0.240048
0.229338
0.219359
0.21011
0.201587
0.193788
0.186709
0.180349
0.174705
0.169772
0.16555
0.162035
0.159226
0.15712
0.155717
0.155016
0.985639
0.956938
0.928298
0.899763
0.871372
0.843165
0.815182
0.787463
0.760043
0.732961
0.706251
0.679947
0.654081
0.628685
0.603787
0.579416
0.555596
0.532351
0.509705
0.487676
0.466284
0.445546
0.425475
0.406087
0.387391
0.369398
0.352117
0.335554
0.319715
0.304604
0.290225
0.276579
0.263667
0.25149
0.240047
0.229338
0.219359
0.210109
0.201586
0.193787
0.186709
0.180349
0.174704
0.169772
0.16555
0.162035
0.159225
0.15712
0.155717
0.155016
0.985639
0.956938
0.928298
0.899763
0.871372
0.843165
0.815182
0.787463
0.760043
0.732961
0.706251
0.679947
0.654081
0.628685
0.603787
0.579416
0.555595
0.532351
0.509704
0.487676
0.466284
0.445545
0.425475
0.406086
0.387391
0.369398
0.352117
0.335554
0.319715
0.304604
0.290224
0.276578
0.263667
0.25149
0.240047
0.229337
0.219359
0.210109
0.201586
0.193787
0.186709
0.180349
0.174704
0.169772
0.165549
0.162035
0.159225
0.15712
0.155717
0.155016
0.985639
0.956938
0.928298
0.899763
0.871371
0.843165
0.815182
0.787463
0.760043
0.732961
0.706251
0.679947
0.654081
0.628685
0.603787
0.579415
0.555595
0.532351
0.509704
0.487676
0.466284
0.445545
0.425475
0.406086
0.38739
0.369398
0.352116
0.335553
0.319714
0.304604
0.290224
0.276578
0.263667
0.25149
0.240047
0.229337
0.219359
0.210109
0.201586
0.193787
0.186709
0.180349
0.174704
0.169772
0.165549
0.162034
0.159225
0.15712
0.155717
0.155016
0.985639
0.956937
0.928298
0.899763
0.871371
0.843165
0.815182
0.787462
0.760043
0.732961
0.706251
0.679947
0.654081
0.628685
0.603787
0.579415
0.555595
0.532351
0.509704
0.487676
0.466284
0.445545
0.425475
0.406086
0.38739
0.369398
0.352116
0.335553
0.319714
0.304604
0.290224
0.276578
0.263666
0.25149
0.240047
0.229337
0.219358
0.210109
0.201586
0.193787
0.186709
0.180349
0.174704
0.169772
0.165549
0.162034
0.159225
0.15712
0.155717
0.155016
0.985639
0.956937
0.928298
0.899763
0.871371
0.843165
0.815182
0.787462
0.760043
0.732961
0.706251
0.679947
0.654081
0.628685
0.603787
0.579415
0.555595
0.532351
0.509704
0.487676
0.466284
0.445545
0.425475
0.406086
0.38739
0.369397
0.352116
0.335553
0.319714
0.304603
0.290224
0.276578
0.263666
0.251489
0.240047
0.229337
0.219358
0.210109
0.201586
0.193787
0.186709
0.180349
0.174704
0.169772
0.165549
0.162034
0.159225
0.15712
0.155717
0.155016
0.985639
0.956937
0.928298
0.899763
0.871371
0.843165
0.815182
0.787462
0.760043
0.732961
0.706251
0.679947
0.654081
0.628685
0.603787
0.579415
0.555595
0.532351
0.509704
0.487675
0.466284
0.445545
0.425475
0.406086
0.38739
0.369397
0.352116
0.335553
0.319714
0.304603
0.290224
0.276578
0.263666
0.251489
0.240047
0.229337
0.219358
0.210109
0.201586
0.193787
0.186709
0.180349
0.174704
0.169772
0.165549
0.162034
0.159225
0.15712
0.155717
0.155016
)
;

boundaryField
{
    inlet
    {
        type            fixedValue;
        value           uniform 1;
    }
    outlet
    {
        type            zeroGradient;
    }
    lowerWall
    {
        type            zeroGradient;
    }
    upperWall
    {
        type            zeroGradient;
    }
    frontAndBack
    {
        type            empty;
    }
}


// ************************************************************************* //
