/*--------------------------------*- C++ -*----------------------------------*\
  =========                 |
  \\      /  F ield         | OpenFOAM: The Open Source CFD Toolbox
   \\    /   O peration     | Website:  https://openfoam.org
    \\  /    A nd           | Version:  12
     \\/     M anipulation  |
\*---------------------------------------------------------------------------*/
FoamFile
{
    format      ascii;
    class       volScalarField;
    location    "13";
    object      T;
}
// * * * * * * * * * * * * * * * * * * * * * * * * * * * * * * * * * * * * * //

dimensions      [0 0 0 1 0 0 0];

internalField   nonuniform List<scalar> 
1250
(
0.983914
0.951769
0.91971
0.887793
0.856073
0.824605
0.793442
0.762635
0.732234
0.702288
0.67284
0.643934
0.615609
0.587904
0.560852
0.534484
0.50883
0.483914
0.459758
0.436381
0.4138
0.392028
0.371075
0.350948
0.331654
0.313194
0.29557
0.278778
0.262817
0.247681
0.233363
0.219855
0.207148
0.195232
0.184097
0.173731
0.164123
0.155261
0.147133
0.139729
0.133038
0.127048
0.121751
0.117137
0.113198
0.109927
0.107317
0.105364
0.104065
0.103415
0.983914
0.951769
0.91971
0.887793
0.856073
0.824605
0.793442
0.762635
0.732234
0.702288
0.67284
0.643934
0.615609
0.587904
0.560852
0.534484
0.50883
0.483914
0.459758
0.436381
0.4138
0.392028
0.371075
0.350948
0.331654
0.313194
0.29557
0.278778
0.262817
0.247681
0.233363
0.219855
0.207148
0.195232
0.184097
0.173731
0.164122
0.155261
0.147133
0.139729
0.133038
0.127048
0.121751
0.117137
0.113198
0.109927
0.107317
0.105364
0.104065
0.103415
0.983914
0.951769
0.91971
0.887793
0.856073
0.824605
0.793442
0.762635
0.732234
0.702288
0.67284
0.643934
0.615609
0.587904
0.560852
0.534484
0.50883
0.483914
0.459758
0.436381
0.4138
0.392028
0.371075
0.350948
0.331654
0.313194
0.295569
0.278778
0.262817
0.247681
0.233363
0.219855
0.207148
0.195232
0.184097
0.173731
0.164122
0.15526
0.147133
0.139729
0.133038
0.127048
0.121751
0.117137
0.113198
0.109926
0.107317
0.105364
0.104065
0.103415
0.983914
0.951769
0.91971
0.887793
0.856073
0.824605
0.793442
0.762635
0.732234
0.702287
0.67284
0.643933
0.615609
0.587904
0.560852
0.534484
0.50883
0.483913
0.459757
0.436381
0.4138
0.392028
0.371074
0.350948
0.331654
0.313194
0.295569
0.278778
0.262817
0.247681
0.233363
0.219855
0.207148
0.195232
0.184096
0.17373
0.164122
0.15526
0.147133
0.139729
0.133038
0.127048
0.121751
0.117137
0.113198
0.109926
0.107317
0.105364
0.104064
0.103415
0.983914
0.951769
0.91971
0.887793
0.856073
0.824605
0.793441
0.762635
0.732234
0.702287
0.672839
0.643933
0.615609
0.587903
0.560851
0.534484
0.508829
0.483913
0.459757
0.436381
0.4138
0.392027
0.371074
0.350948
0.331653
0.313194
0.295569
0.278778
0.262817
0.24768
0.233362
0.219854
0.207147
0.195232
0.184096
0.17373
0.164122
0.15526
0.147133
0.139729
0.133037
0.127048
0.121751
0.117136
0.113197
0.109926
0.107317
0.105364
0.104064
0.103415
0.983914
0.951769
0.91971
0.887793
0.856073
0.824605
0.793441
0.762635
0.732234
0.702287
0.672839
0.643933
0.615609
0.587903
0.560851
0.534484
0.508829
0.483913
0.459757
0.43638
0.413799
0.392027
0.371074
0.350947
0.331653
0.313193
0.295569
0.278778
0.262816
0.24768
0.233362
0.219854
0.207147
0.195231
0.184096
0.17373
0.164122
0.15526
0.147132
0.139729
0.133037
0.127048
0.12175
0.117136
0.113197
0.109926
0.107316
0.105364
0.104064
0.103415
0.983914
0.951769
0.91971
0.887793
0.856073
0.824604
0.793441
0.762634
0.732234
0.702287
0.672839
0.643933
0.615608
0.587903
0.560851
0.534483
0.508829
0.483912
0.459756
0.43638
0.413799
0.392027
0.371073
0.350947
0.331653
0.313193
0.295568
0.278777
0.262816
0.24768
0.233362
0.219854
0.207147
0.195231
0.184096
0.17373
0.164121
0.155259
0.147132
0.139728
0.133037
0.127047
0.12175
0.117136
0.113197
0.109926
0.107316
0.105363
0.104064
0.103415
0.983914
0.951769
0.91971
0.887793
0.856073
0.824604
0.793441
0.762634
0.732234
0.702287
0.672839
0.643932
0.615608
0.587903
0.56085
0.534483
0.508828
0.483912
0.459756
0.43638
0.413798
0.392026
0.371073
0.350947
0.331652
0.313193
0.295568
0.278777
0.262816
0.247679
0.233361
0.219853
0.207146
0.195231
0.184095
0.173729
0.164121
0.155259
0.147132
0.139728
0.133036
0.127047
0.12175
0.117136
0.113196
0.109925
0.107316
0.105363
0.104063
0.103414
0.983914
0.951769
0.91971
0.887793
0.856072
0.824604
0.793441
0.762634
0.732233
0.702286
0.672838
0.643932
0.615608
0.587902
0.56085
0.534483
0.508828
0.483912
0.459756
0.436379
0.413798
0.392026
0.371073
0.350946
0.331652
0.313192
0.295568
0.278776
0.262815
0.247679
0.233361
0.219853
0.207146
0.19523
0.184095
0.173729
0.164121
0.155259
0.147131
0.139728
0.133036
0.127047
0.121749
0.117135
0.113196
0.109925
0.107315
0.105363
0.104063
0.103414
0.983914
0.951769
0.91971
0.887793
0.856072
0.824604
0.793441
0.762634
0.732233
0.702286
0.672838
0.643932
0.615607
0.587902
0.56085
0.534482
0.508828
0.483911
0.459755
0.436379
0.413798
0.392025
0.371072
0.350946
0.331651
0.313192
0.295567
0.278776
0.262815
0.247679
0.23336
0.219852
0.207145
0.19523
0.184094
0.173728
0.16412
0.155258
0.147131
0.139727
0.133036
0.127046
0.121749
0.117135
0.113196
0.109925
0.107315
0.105362
0.104063
0.103414
0.983914
0.951769
0.91971
0.887792
0.856072
0.824604
0.79344
0.762633
0.732233
0.702286
0.672838
0.643932
0.615607
0.587901
0.560849
0.534482
0.508827
0.483911
0.459755
0.436378
0.413797
0.392025
0.371072
0.350945
0.331651
0.313191
0.295567
0.278775
0.262814
0.247678
0.23336
0.219852
0.207145
0.195229
0.184094
0.173728
0.16412
0.155258
0.147131
0.139727
0.133035
0.127046
0.121749
0.117135
0.113195
0.109924
0.107315
0.105362
0.104063
0.103413
0.983913
0.951769
0.91971
0.887792
0.856072
0.824604
0.79344
0.762633
0.732233
0.702286
0.672838
0.643931
0.615607
0.587901
0.560849
0.534481
0.508827
0.48391
0.459754
0.436378
0.413797
0.392024
0.371071
0.350945
0.33165
0.313191
0.295566
0.278775
0.262814
0.247678
0.233359
0.219851
0.207145
0.195229
0.184093
0.173727
0.164119
0.155257
0.14713
0.139726
0.133035
0.127046
0.121748
0.117134
0.113195
0.109924
0.107314
0.105362
0.104062
0.103413
0.983913
0.951769
0.91971
0.887792
0.856072
0.824603
0.79344
0.762633
0.732232
0.702285
0.672837
0.643931
0.615606
0.587901
0.560849
0.534481
0.508826
0.48391
0.459754
0.436377
0.413796
0.392024
0.371071
0.350944
0.33165
0.31319
0.295566
0.278774
0.262813
0.247677
0.233359
0.219851
0.207144
0.195228
0.184093
0.173727
0.164119
0.155257
0.14713
0.139726
0.133035
0.127045
0.121748
0.117134
0.113195
0.109924
0.107314
0.105362
0.104062
0.103413
0.983913
0.951769
0.91971
0.887792
0.856072
0.824603
0.79344
0.762633
0.732232
0.702285
0.672837
0.643931
0.615606
0.5879
0.560848
0.534481
0.508826
0.48391
0.459753
0.436377
0.413796
0.392023
0.37107
0.350944
0.331649
0.31319
0.295565
0.278774
0.262813
0.247677
0.233358
0.21985
0.207144
0.195228
0.184093
0.173727
0.164118
0.155257
0.147129
0.139726
0.133034
0.127045
0.121748
0.117134
0.113194
0.109923
0.107314
0.105361
0.104062
0.103412
0.983913
0.951769
0.91971
0.887792
0.856072
0.824603
0.79344
0.762633
0.732232
0.702285
0.672837
0.64393
0.615606
0.5879
0.560848
0.53448
0.508826
0.483909
0.459753
0.436376
0.413795
0.392023
0.37107
0.350943
0.331649
0.313189
0.295565
0.278774
0.262812
0.247676
0.233358
0.21985
0.207143
0.195227
0.184092
0.173726
0.164118
0.155256
0.147129
0.139725
0.133034
0.127044
0.121747
0.117133
0.113194
0.109923
0.107314
0.105361
0.104061
0.103412
0.983913
0.951769
0.91971
0.887792
0.856072
0.824603
0.793439
0.762632
0.732232
0.702285
0.672836
0.64393
0.615605
0.5879
0.560847
0.53448
0.508825
0.483909
0.459753
0.436376
0.413795
0.392023
0.371069
0.350943
0.331649
0.313189
0.295564
0.278773
0.262812
0.247676
0.233358
0.21985
0.207143
0.195227
0.184092
0.173726
0.164118
0.155256
0.147129
0.139725
0.133034
0.127044
0.121747
0.117133
0.113194
0.109923
0.107313
0.105361
0.104061
0.103412
0.983913
0.951769
0.919709
0.887792
0.856071
0.824603
0.793439
0.762632
0.732231
0.702284
0.672836
0.64393
0.615605
0.5879
0.560847
0.53448
0.508825
0.483908
0.459752
0.436376
0.413795
0.392022
0.371069
0.350943
0.331648
0.313188
0.295564
0.278773
0.262812
0.247675
0.233357
0.219849
0.207142
0.195227
0.184091
0.173725
0.164117
0.155255
0.147128
0.139725
0.133033
0.127044
0.121747
0.117133
0.113194
0.109922
0.107313
0.10536
0.104061
0.103412
0.983913
0.951769
0.919709
0.887792
0.856071
0.824603
0.793439
0.762632
0.732231
0.702284
0.672836
0.64393
0.615605
0.587899
0.560847
0.534479
0.508825
0.483908
0.459752
0.436375
0.413794
0.392022
0.371069
0.350942
0.331648
0.313188
0.295563
0.278772
0.262811
0.247675
0.233357
0.219849
0.207142
0.195226
0.184091
0.173725
0.164117
0.155255
0.147128
0.139724
0.133033
0.127044
0.121746
0.117132
0.113193
0.109922
0.107313
0.10536
0.104061
0.103412
0.983913
0.951769
0.919709
0.887792
0.856071
0.824603
0.793439
0.762632
0.732231
0.702284
0.672836
0.643929
0.615605
0.587899
0.560847
0.534479
0.508824
0.483908
0.459752
0.436375
0.413794
0.392022
0.371068
0.350942
0.331648
0.313188
0.295563
0.278772
0.262811
0.247675
0.233356
0.219849
0.207142
0.195226
0.184091
0.173725
0.164117
0.155255
0.147128
0.139724
0.133033
0.127043
0.121746
0.117132
0.113193
0.109922
0.107313
0.10536
0.104061
0.103411
0.983913
0.951769
0.919709
0.887792
0.856071
0.824603
0.793439
0.762632
0.732231
0.702284
0.672836
0.643929
0.615605
0.587899
0.560847
0.534479
0.508824
0.483908
0.459752
0.436375
0.413794
0.392021
0.371068
0.350942
0.331647
0.313187
0.295563
0.278772
0.262811
0.247674
0.233356
0.219848
0.207141
0.195226
0.18409
0.173725
0.164116
0.155255
0.147128
0.139724
0.133033
0.127043
0.121746
0.117132
0.113193
0.109922
0.107313
0.10536
0.10406
0.103411
0.983913
0.951769
0.919709
0.887792
0.856071
0.824603
0.793439
0.762632
0.732231
0.702284
0.672836
0.643929
0.615604
0.587899
0.560846
0.534479
0.508824
0.483908
0.459751
0.436375
0.413794
0.392021
0.371068
0.350941
0.331647
0.313187
0.295563
0.278771
0.26281
0.247674
0.233356
0.219848
0.207141
0.195225
0.18409
0.173724
0.164116
0.155254
0.147127
0.139724
0.133032
0.127043
0.121746
0.117132
0.113193
0.109922
0.107313
0.10536
0.10406
0.103411
0.983913
0.951769
0.919709
0.887792
0.856071
0.824603
0.793439
0.762632
0.732231
0.702284
0.672836
0.643929
0.615604
0.587899
0.560846
0.534479
0.508824
0.483907
0.459751
0.436375
0.413793
0.392021
0.371068
0.350941
0.331647
0.313187
0.295562
0.278771
0.26281
0.247674
0.233356
0.219848
0.207141
0.195225
0.18409
0.173724
0.164116
0.155254
0.147127
0.139724
0.133032
0.127043
0.121746
0.117132
0.113193
0.109922
0.107312
0.10536
0.10406
0.103411
0.983913
0.951769
0.919709
0.887792
0.856071
0.824603
0.793439
0.762632
0.732231
0.702284
0.672836
0.643929
0.615604
0.587899
0.560846
0.534479
0.508824
0.483907
0.459751
0.436374
0.413793
0.392021
0.371068
0.350941
0.331647
0.313187
0.295562
0.278771
0.26281
0.247674
0.233356
0.219848
0.207141
0.195225
0.18409
0.173724
0.164116
0.155254
0.147127
0.139723
0.133032
0.127043
0.121746
0.117132
0.113193
0.109922
0.107312
0.10536
0.10406
0.103411
0.983913
0.951769
0.919709
0.887792
0.856071
0.824603
0.793439
0.762632
0.732231
0.702284
0.672835
0.643929
0.615604
0.587899
0.560846
0.534479
0.508824
0.483907
0.459751
0.436374
0.413793
0.392021
0.371068
0.350941
0.331647
0.313187
0.295562
0.278771
0.26281
0.247674
0.233356
0.219848
0.207141
0.195225
0.18409
0.173724
0.164116
0.155254
0.147127
0.139723
0.133032
0.127043
0.121746
0.117132
0.113193
0.109922
0.107312
0.10536
0.10406
0.103411
0.983913
0.951769
0.919709
0.887792
0.856071
0.824603
0.793439
0.762632
0.732231
0.702284
0.672835
0.643929
0.615604
0.587899
0.560846
0.534479
0.508824
0.483907
0.459751
0.436374
0.413793
0.392021
0.371068
0.350941
0.331647
0.313187
0.295562
0.278771
0.26281
0.247674
0.233355
0.219848
0.207141
0.195225
0.18409
0.173724
0.164116
0.155254
0.147127
0.139723
0.133032
0.127043
0.121746
0.117132
0.113193
0.109922
0.107312
0.10536
0.10406
0.103411
)
;

boundaryField
{
    inlet
    {
        type            fixedValue;
        value           uniform 1;
    }
    outlet
    {
        type            zeroGradient;
    }
    lowerWall
    {
        type            zeroGradient;
    }
    upperWall
    {
        type            zeroGradient;
    }
    frontAndBack
    {
        type            empty;
    }
}


// ************************************************************************* //
