/*--------------------------------*- C++ -*----------------------------------*\
  =========                 |
  \\      /  F ield         | OpenFOAM: The Open Source CFD Toolbox
   \\    /   O peration     | Website:  https://openfoam.org
    \\  /    A nd           | Version:  12
     \\/     M anipulation  |
\*---------------------------------------------------------------------------*/
FoamFile
{
    format      ascii;
    class       volScalarField;
    location    "15";
    object      T;
}
// * * * * * * * * * * * * * * * * * * * * * * * * * * * * * * * * * * * * * //

dimensions      [0 0 0 1 0 0 0];

internalField   nonuniform List<scalar> 
1250
(
0.985119
0.955381
0.925711
0.896155
0.866758
0.837563
0.808614
0.779954
0.751622
0.723659
0.696102
0.668989
0.642353
0.616227
0.590643
0.565628
0.541209
0.517412
0.494257
0.471766
0.449956
0.428844
0.408443
0.388765
0.369821
0.351618
0.334163
0.317461
0.301514
0.286325
0.271895
0.258222
0.245306
0.233143
0.22173
0.211064
0.201139
0.191952
0.183498
0.175771
0.168765
0.162477
0.156901
0.152034
0.147869
0.144405
0.141637
0.139564
0.138183
0.137493
0.985119
0.955381
0.925711
0.896155
0.866758
0.837563
0.808614
0.779954
0.751622
0.723659
0.696102
0.668989
0.642353
0.616227
0.590643
0.565628
0.541209
0.517412
0.494257
0.471766
0.449956
0.428844
0.408443
0.388765
0.369821
0.351618
0.334163
0.317461
0.301514
0.286325
0.271895
0.258222
0.245306
0.233143
0.22173
0.211064
0.201139
0.191952
0.183498
0.17577
0.168765
0.162477
0.156901
0.152033
0.147869
0.144405
0.141637
0.139564
0.138183
0.137493
0.985119
0.955381
0.925711
0.896155
0.866758
0.837563
0.808614
0.779954
0.751622
0.723659
0.696102
0.668989
0.642353
0.616227
0.590643
0.565628
0.541209
0.517412
0.494257
0.471766
0.449956
0.428844
0.408443
0.388765
0.369821
0.351618
0.334163
0.31746
0.301514
0.286325
0.271895
0.258222
0.245305
0.233142
0.22173
0.211063
0.201139
0.191952
0.183498
0.17577
0.168765
0.162477
0.156901
0.152033
0.147869
0.144405
0.141637
0.139564
0.138183
0.137493
0.985119
0.955381
0.925711
0.896155
0.866758
0.837563
0.808614
0.779954
0.751622
0.723659
0.696102
0.668989
0.642353
0.616227
0.590643
0.565628
0.541209
0.517411
0.494257
0.471766
0.449956
0.428844
0.408443
0.388765
0.369821
0.351618
0.334163
0.31746
0.301514
0.286325
0.271895
0.258222
0.245305
0.233142
0.22173
0.211063
0.201139
0.191952
0.183497
0.17577
0.168765
0.162477
0.156901
0.152033
0.147869
0.144405
0.141637
0.139564
0.138183
0.137493
0.985119
0.955381
0.925711
0.896155
0.866758
0.837563
0.808614
0.779953
0.751622
0.723659
0.696102
0.668989
0.642353
0.616227
0.590642
0.565627
0.541209
0.517411
0.494257
0.471765
0.449956
0.428843
0.408442
0.388765
0.36982
0.351618
0.334162
0.31746
0.301514
0.286325
0.271894
0.258222
0.245305
0.233142
0.221729
0.211063
0.201139
0.191952
0.183497
0.17577
0.168765
0.162477
0.156901
0.152033
0.147869
0.144404
0.141637
0.139564
0.138183
0.137492
0.985119
0.955381
0.925711
0.896155
0.866758
0.837563
0.808614
0.779953
0.751622
0.723658
0.696102
0.668988
0.642352
0.616227
0.590642
0.565627
0.541209
0.517411
0.494256
0.471765
0.449955
0.428843
0.408442
0.388765
0.36982
0.351617
0.334162
0.31746
0.301513
0.286325
0.271894
0.258221
0.245305
0.233142
0.221729
0.211063
0.201138
0.191952
0.183497
0.17577
0.168764
0.162476
0.1569
0.152033
0.147868
0.144404
0.141637
0.139563
0.138182
0.137492
0.985119
0.955381
0.925711
0.896155
0.866758
0.837563
0.808614
0.779953
0.751621
0.723658
0.696102
0.668988
0.642352
0.616227
0.590642
0.565627
0.541208
0.517411
0.494256
0.471765
0.449955
0.428843
0.408442
0.388764
0.36982
0.351617
0.334162
0.317459
0.301513
0.286324
0.271894
0.258221
0.245304
0.233141
0.221729
0.211062
0.201138
0.191951
0.183497
0.175769
0.168764
0.162476
0.1569
0.152032
0.147868
0.144404
0.141636
0.139563
0.138182
0.137492
0.985119
0.955381
0.925711
0.896155
0.866758
0.837563
0.808614
0.779953
0.751621
0.723658
0.696101
0.668988
0.642352
0.616226
0.590642
0.565627
0.541208
0.51741
0.494256
0.471764
0.449955
0.428842
0.408441
0.388764
0.369819
0.351616
0.334161
0.317459
0.301513
0.286324
0.271893
0.258221
0.245304
0.233141
0.221728
0.211062
0.201138
0.191951
0.183496
0.175769
0.168764
0.162476
0.1569
0.152032
0.147868
0.144403
0.141636
0.139563
0.138182
0.137491
0.985119
0.955381
0.925711
0.896155
0.866757
0.837563
0.808614
0.779953
0.751621
0.723658
0.696101
0.668988
0.642352
0.616226
0.590641
0.565626
0.541208
0.51741
0.494255
0.471764
0.449954
0.428842
0.408441
0.388763
0.369819
0.351616
0.334161
0.317459
0.301512
0.286323
0.271893
0.25822
0.245304
0.233141
0.221728
0.211061
0.201137
0.19195
0.183496
0.175768
0.168763
0.162475
0.156899
0.152031
0.147867
0.144403
0.141635
0.139562
0.138181
0.137491
0.985119
0.955381
0.925711
0.896155
0.866757
0.837562
0.808613
0.779953
0.751621
0.723657
0.696101
0.668987
0.642351
0.616226
0.590641
0.565626
0.541207
0.517409
0.494255
0.471764
0.449954
0.428842
0.408441
0.388763
0.369819
0.351616
0.334161
0.317458
0.301512
0.286323
0.271892
0.25822
0.245303
0.23314
0.221727
0.211061
0.201137
0.19195
0.183495
0.175768
0.168763
0.162475
0.156899
0.152031
0.147867
0.144402
0.141635
0.139562
0.138181
0.137491
0.985119
0.955381
0.925711
0.896155
0.866757
0.837562
0.808613
0.779952
0.75162
0.723657
0.696101
0.668987
0.642351
0.616225
0.59064
0.565626
0.541207
0.517409
0.494254
0.471763
0.449953
0.428841
0.40844
0.388762
0.369818
0.351615
0.33416
0.317458
0.301511
0.286322
0.271892
0.258219
0.245303
0.23314
0.221727
0.211061
0.201136
0.191949
0.183495
0.175767
0.168762
0.162474
0.156898
0.152031
0.147866
0.144402
0.141635
0.139561
0.13818
0.13749
0.985119
0.955381
0.925711
0.896155
0.866757
0.837562
0.808613
0.779952
0.75162
0.723657
0.6961
0.668987
0.642351
0.616225
0.59064
0.565625
0.541206
0.517409
0.494254
0.471763
0.449953
0.428841
0.40844
0.388762
0.369818
0.351615
0.33416
0.317457
0.301511
0.286322
0.271891
0.258219
0.245302
0.233139
0.221726
0.21106
0.201136
0.191949
0.183494
0.175767
0.168762
0.162474
0.156898
0.15203
0.147866
0.144402
0.141634
0.139561
0.13818
0.13749
0.985119
0.955381
0.925711
0.896155
0.866757
0.837562
0.808613
0.779952
0.75162
0.723657
0.6961
0.668986
0.64235
0.616224
0.59064
0.565625
0.541206
0.517408
0.494254
0.471762
0.449952
0.42884
0.408439
0.388761
0.369817
0.351614
0.334159
0.317457
0.30151
0.286321
0.271891
0.258218
0.245302
0.233139
0.221726
0.21106
0.201135
0.191948
0.183494
0.175766
0.168761
0.162473
0.156898
0.15203
0.147865
0.144401
0.141634
0.139561
0.13818
0.137489
0.985119
0.955381
0.925711
0.896154
0.866757
0.837562
0.808613
0.779952
0.75162
0.723656
0.6961
0.668986
0.64235
0.616224
0.590639
0.565624
0.541206
0.517408
0.494253
0.471762
0.449952
0.42884
0.408439
0.388761
0.369817
0.351614
0.334159
0.317456
0.30151
0.286321
0.27189
0.258218
0.245301
0.233138
0.221725
0.211059
0.201135
0.191948
0.183493
0.175766
0.168761
0.162473
0.156897
0.152029
0.147865
0.144401
0.141633
0.13956
0.138179
0.137489
0.985119
0.955381
0.925711
0.896154
0.866757
0.837562
0.808613
0.779951
0.75162
0.723656
0.696099
0.668986
0.64235
0.616224
0.590639
0.565624
0.541205
0.517407
0.494253
0.471761
0.449952
0.428839
0.408438
0.38876
0.369816
0.351613
0.334158
0.317456
0.301509
0.28632
0.27189
0.258217
0.245301
0.233138
0.221725
0.211059
0.201134
0.191947
0.183493
0.175766
0.16876
0.162472
0.156897
0.152029
0.147865
0.1444
0.141633
0.13956
0.138179
0.137489
0.985119
0.955381
0.925711
0.896154
0.866757
0.837561
0.808612
0.779951
0.751619
0.723656
0.696099
0.668985
0.642349
0.616223
0.590639
0.565624
0.541205
0.517407
0.494252
0.471761
0.449951
0.428839
0.408438
0.38876
0.369816
0.351613
0.334158
0.317455
0.301509
0.28632
0.271889
0.258217
0.2453
0.233137
0.221724
0.211058
0.201134
0.191947
0.183492
0.175765
0.16876
0.162472
0.156896
0.152028
0.147864
0.1444
0.141633
0.139559
0.138178
0.137488
0.985119
0.955381
0.925711
0.896154
0.866756
0.837561
0.808612
0.779951
0.751619
0.723656
0.696099
0.668985
0.642349
0.616223
0.590638
0.565623
0.541205
0.517407
0.494252
0.471761
0.449951
0.428838
0.408437
0.38876
0.369815
0.351612
0.334157
0.317455
0.301508
0.286319
0.271889
0.258216
0.2453
0.233137
0.221724
0.211058
0.201133
0.191947
0.183492
0.175765
0.16876
0.162472
0.156896
0.152028
0.147864
0.1444
0.141632
0.139559
0.138178
0.137488
0.985119
0.955381
0.925711
0.896154
0.866756
0.837561
0.808612
0.779951
0.751619
0.723656
0.696099
0.668985
0.642349
0.616223
0.590638
0.565623
0.541204
0.517406
0.494252
0.47176
0.44995
0.428838
0.408437
0.388759
0.369815
0.351612
0.334157
0.317454
0.301508
0.286319
0.271889
0.258216
0.245299
0.233136
0.221723
0.211057
0.201133
0.191946
0.183492
0.175764
0.168759
0.162471
0.156896
0.152028
0.147864
0.144399
0.141632
0.139559
0.138178
0.137488
0.985119
0.955381
0.92571
0.896154
0.866756
0.837561
0.808612
0.779951
0.751619
0.723655
0.696099
0.668985
0.642349
0.616223
0.590638
0.565623
0.541204
0.517406
0.494251
0.47176
0.44995
0.428838
0.408437
0.388759
0.369814
0.351611
0.334156
0.317454
0.301507
0.286319
0.271888
0.258215
0.245299
0.233136
0.221723
0.211057
0.201133
0.191946
0.183491
0.175764
0.168759
0.162471
0.156895
0.152027
0.147863
0.144399
0.141632
0.139559
0.138178
0.137488
0.985119
0.955381
0.92571
0.896154
0.866756
0.837561
0.808612
0.779951
0.751619
0.723655
0.696098
0.668985
0.642348
0.616223
0.590638
0.565623
0.541204
0.517406
0.494251
0.47176
0.44995
0.428837
0.408436
0.388759
0.369814
0.351611
0.334156
0.317454
0.301507
0.286318
0.271888
0.258215
0.245298
0.233135
0.221723
0.211057
0.201132
0.191946
0.183491
0.175764
0.168759
0.162471
0.156895
0.152027
0.147863
0.144399
0.141632
0.139558
0.138178
0.137487
0.985119
0.955381
0.92571
0.896154
0.866756
0.837561
0.808612
0.779951
0.751619
0.723655
0.696098
0.668984
0.642348
0.616222
0.590637
0.565622
0.541204
0.517406
0.494251
0.47176
0.44995
0.428837
0.408436
0.388758
0.369814
0.351611
0.334156
0.317453
0.301507
0.286318
0.271888
0.258215
0.245298
0.233135
0.221723
0.211056
0.201132
0.191945
0.183491
0.175764
0.168758
0.162471
0.156895
0.152027
0.147863
0.144399
0.141631
0.139558
0.138177
0.137487
0.985119
0.955381
0.92571
0.896154
0.866756
0.837561
0.808612
0.779951
0.751618
0.723655
0.696098
0.668984
0.642348
0.616222
0.590637
0.565622
0.541203
0.517405
0.494251
0.471759
0.449949
0.428837
0.408436
0.388758
0.369814
0.351611
0.334156
0.317453
0.301507
0.286318
0.271887
0.258215
0.245298
0.233135
0.221722
0.211056
0.201132
0.191945
0.183491
0.175763
0.168758
0.16247
0.156895
0.152027
0.147863
0.144399
0.141631
0.139558
0.138177
0.137487
0.985119
0.955381
0.92571
0.896154
0.866756
0.837561
0.808612
0.779951
0.751618
0.723655
0.696098
0.668984
0.642348
0.616222
0.590637
0.565622
0.541203
0.517405
0.494251
0.471759
0.449949
0.428837
0.408436
0.388758
0.369814
0.35161
0.334155
0.317453
0.301506
0.286318
0.271887
0.258214
0.245298
0.233135
0.221722
0.211056
0.201132
0.191945
0.183491
0.175763
0.168758
0.16247
0.156895
0.152027
0.147863
0.144399
0.141631
0.139558
0.138177
0.137487
0.985119
0.955381
0.92571
0.896154
0.866756
0.837561
0.808612
0.77995
0.751618
0.723655
0.696098
0.668984
0.642348
0.616222
0.590637
0.565622
0.541203
0.517405
0.494251
0.471759
0.449949
0.428837
0.408436
0.388758
0.369813
0.35161
0.334155
0.317453
0.301506
0.286317
0.271887
0.258214
0.245298
0.233135
0.221722
0.211056
0.201132
0.191945
0.18349
0.175763
0.168758
0.16247
0.156895
0.152027
0.147863
0.144399
0.141631
0.139558
0.138177
0.137487
0.985119
0.955381
0.92571
0.896154
0.866756
0.837561
0.808612
0.77995
0.751618
0.723655
0.696098
0.668984
0.642348
0.616222
0.590637
0.565622
0.541203
0.517405
0.49425
0.471759
0.449949
0.428837
0.408436
0.388758
0.369813
0.35161
0.334155
0.317453
0.301506
0.286317
0.271887
0.258214
0.245298
0.233135
0.221722
0.211056
0.201132
0.191945
0.18349
0.175763
0.168758
0.16247
0.156895
0.152027
0.147863
0.144399
0.141631
0.139558
0.138177
0.137487
)
;

boundaryField
{
    inlet
    {
        type            fixedValue;
        value           uniform 1;
    }
    outlet
    {
        type            zeroGradient;
    }
    lowerWall
    {
        type            zeroGradient;
    }
    upperWall
    {
        type            zeroGradient;
    }
    frontAndBack
    {
        type            empty;
    }
}


// ************************************************************************* //
