/*--------------------------------*- C++ -*----------------------------------*\
  =========                 |
  \\      /  F ield         | OpenFOAM: The Open Source CFD Toolbox
   \\    /   O peration     | Website:  https://openfoam.org
    \\  /    A nd           | Version:  12
     \\/     M anipulation  |
\*---------------------------------------------------------------------------*/
FoamFile
{
    format      ascii;
    class       volScalarField;
    location    "8";
    object      T;
}
// * * * * * * * * * * * * * * * * * * * * * * * * * * * * * * * * * * * * * //

dimensions      [0 0 0 1 0 0 0];

internalField   nonuniform List<scalar> 
1250
(
0.979048
0.937208
0.895561
0.854234
0.81335
0.773026
0.733375
0.694503
0.656507
0.619476
0.583491
0.548621
0.514926
0.482458
0.451258
0.421355
0.392771
0.365519
0.339604
0.31502
0.291758
0.2698
0.249121
0.229694
0.211485
0.194457
0.178571
0.163785
0.150054
0.137334
0.125578
0.114741
0.104777
0.0956417
0.0872906
0.0796817
0.0727744
0.06653
0.0609118
0.0558857
0.0514199
0.0474853
0.0440555
0.0411066
0.038618
0.0365718
0.0349528
0.0337492
0.0329519
0.0325549
0.979048
0.937208
0.895562
0.854234
0.81335
0.773026
0.733375
0.694503
0.656507
0.619476
0.583491
0.548621
0.514926
0.482458
0.451257
0.421354
0.392771
0.365519
0.339604
0.31502
0.291758
0.269799
0.249121
0.229694
0.211485
0.194457
0.178571
0.163785
0.150054
0.137334
0.125578
0.114741
0.104777
0.0956417
0.0872906
0.0796817
0.0727744
0.0665299
0.0609117
0.0558856
0.0514199
0.0474853
0.0440554
0.0411066
0.038618
0.0365717
0.0349527
0.0337489
0.0329515
0.0325547
0.979048
0.937208
0.895561
0.854234
0.81335
0.773026
0.733375
0.694503
0.656507
0.619476
0.583491
0.548621
0.514926
0.482458
0.451257
0.421354
0.392771
0.365519
0.339604
0.31502
0.291758
0.269799
0.249121
0.229693
0.211485
0.194457
0.178571
0.163785
0.150054
0.137334
0.125578
0.114741
0.104777
0.0956416
0.0872905
0.0796816
0.0727743
0.0665298
0.0609116
0.0558856
0.0514198
0.0474852
0.0440553
0.0411065
0.0386179
0.0365717
0.0349528
0.0337491
0.0329515
0.0325545
0.979048
0.937208
0.895561
0.854234
0.81335
0.773026
0.733375
0.694503
0.656507
0.619476
0.583491
0.54862
0.514926
0.482458
0.451257
0.421354
0.392771
0.365519
0.339603
0.31502
0.291758
0.269799
0.249121
0.229693
0.211484
0.194457
0.178571
0.163785
0.150054
0.137334
0.125578
0.114741
0.104777
0.0956414
0.0872903
0.0796815
0.0727741
0.0665297
0.0609115
0.0558854
0.0514197
0.0474851
0.0440552
0.0411064
0.0386178
0.0365715
0.0349526
0.033749
0.0329515
0.0325544
0.979048
0.937208
0.895561
0.854234
0.81335
0.773026
0.733375
0.694503
0.656507
0.619476
0.58349
0.54862
0.514926
0.482458
0.451257
0.421354
0.39277
0.365519
0.339603
0.31502
0.291758
0.269799
0.24912
0.229693
0.211484
0.194457
0.178571
0.163785
0.150054
0.137334
0.125578
0.114741
0.104777
0.0956412
0.0872901
0.0796813
0.072774
0.0665295
0.0609113
0.0558853
0.0514195
0.0474849
0.0440551
0.0411063
0.0386177
0.0365714
0.0349525
0.0337489
0.0329515
0.0325543
0.979048
0.937208
0.895561
0.854234
0.81335
0.773026
0.733375
0.694503
0.656507
0.619476
0.58349
0.54862
0.514926
0.482458
0.451257
0.421354
0.39277
0.365519
0.339603
0.31502
0.291757
0.269799
0.24912
0.229693
0.211484
0.194456
0.178571
0.163784
0.150054
0.137333
0.125577
0.11474
0.104777
0.095641
0.0872899
0.079681
0.0727737
0.0665293
0.0609112
0.0558851
0.0514193
0.0474848
0.0440549
0.0411061
0.0386176
0.0365713
0.0349524
0.0337487
0.0329514
0.0325542
0.979048
0.937208
0.895561
0.854234
0.81335
0.773026
0.733375
0.694503
0.656507
0.619476
0.58349
0.54862
0.514926
0.482458
0.451257
0.421354
0.39277
0.365518
0.339603
0.315019
0.291757
0.269798
0.24912
0.229693
0.211484
0.194456
0.17857
0.163784
0.150053
0.137333
0.125577
0.11474
0.104776
0.0956407
0.0872897
0.0796808
0.0727735
0.0665291
0.060911
0.0558849
0.0514192
0.0474846
0.0440548
0.041106
0.0386175
0.0365712
0.0349523
0.0337486
0.0329513
0.0325541
0.979048
0.937208
0.895561
0.854234
0.813349
0.773025
0.733375
0.694502
0.656506
0.619476
0.58349
0.54862
0.514925
0.482457
0.451256
0.421353
0.39277
0.365518
0.339602
0.315019
0.291757
0.269798
0.249119
0.229692
0.211483
0.194456
0.17857
0.163784
0.150053
0.137333
0.125577
0.11474
0.104776
0.0956404
0.0872894
0.0796806
0.0727733
0.0665289
0.0609107
0.0558847
0.051419
0.0474844
0.0440546
0.0411058
0.0386173
0.0365711
0.0349522
0.0337485
0.0329512
0.032554
0.979048
0.937208
0.895561
0.854234
0.813349
0.773025
0.733375
0.694502
0.656506
0.619475
0.58349
0.54862
0.514925
0.482457
0.451256
0.421353
0.392769
0.365518
0.339602
0.315019
0.291757
0.269798
0.249119
0.229692
0.211483
0.194455
0.17857
0.163783
0.150053
0.137332
0.125577
0.11474
0.104776
0.0956402
0.0872891
0.0796803
0.072773
0.0665286
0.0609105
0.0558845
0.0514188
0.0474843
0.0440545
0.0411057
0.0386172
0.036571
0.0349521
0.0337484
0.0329511
0.0325539
0.979048
0.937208
0.895561
0.854234
0.813349
0.773025
0.733374
0.694502
0.656506
0.619475
0.58349
0.548619
0.514925
0.482457
0.451256
0.421353
0.392769
0.365518
0.339602
0.315019
0.291756
0.269798
0.249119
0.229692
0.211483
0.194455
0.178569
0.163783
0.150052
0.137332
0.125576
0.114739
0.104775
0.0956399
0.0872889
0.0796801
0.0727728
0.0665284
0.0609103
0.0558843
0.0514186
0.0474841
0.0440543
0.0411056
0.0386171
0.0365709
0.034952
0.0337483
0.032951
0.0325538
0.979048
0.937208
0.895561
0.854234
0.813349
0.773025
0.733374
0.694502
0.656506
0.619475
0.583489
0.548619
0.514925
0.482457
0.451256
0.421353
0.392769
0.365517
0.339602
0.315018
0.291756
0.269797
0.249119
0.229691
0.211482
0.194455
0.178569
0.163783
0.150052
0.137332
0.125576
0.114739
0.104775
0.0956397
0.0872887
0.0796799
0.0727726
0.0665282
0.0609102
0.0558842
0.0514185
0.047484
0.0440542
0.0411055
0.038617
0.0365708
0.0349519
0.0337483
0.0329509
0.0325538
0.979048
0.937208
0.895561
0.854234
0.813349
0.773025
0.733374
0.694502
0.656506
0.619475
0.583489
0.548619
0.514925
0.482457
0.451256
0.421352
0.392769
0.365517
0.339601
0.315018
0.291756
0.269797
0.249118
0.229691
0.211482
0.194455
0.178569
0.163783
0.150052
0.137332
0.125576
0.114739
0.104775
0.0956395
0.0872885
0.0796797
0.0727724
0.0665281
0.06091
0.055884
0.0514184
0.0474839
0.0440541
0.0411054
0.0386169
0.0365707
0.0349518
0.0337482
0.0329509
0.0325537
0.979048
0.937208
0.895561
0.854234
0.813349
0.773025
0.733374
0.694502
0.656506
0.619475
0.583489
0.548619
0.514925
0.482456
0.451255
0.421352
0.392769
0.365517
0.339601
0.315018
0.291756
0.269797
0.249118
0.229691
0.211482
0.194455
0.178569
0.163782
0.150052
0.137331
0.125576
0.114739
0.104775
0.0956393
0.0872883
0.0796795
0.0727723
0.0665279
0.0609099
0.0558839
0.0514183
0.0474838
0.044054
0.0411053
0.0386168
0.0365707
0.0349518
0.0337482
0.0329509
0.0325537
0.979048
0.937208
0.895561
0.854234
0.813349
0.773025
0.733374
0.694502
0.656506
0.619475
0.583489
0.548619
0.514924
0.482456
0.451255
0.421352
0.392769
0.365517
0.339601
0.315018
0.291756
0.269797
0.249118
0.229691
0.211482
0.194454
0.178569
0.163782
0.150052
0.137331
0.125575
0.114738
0.104775
0.0956391
0.0872881
0.0796794
0.0727722
0.0665278
0.0609098
0.0558838
0.0514182
0.0474837
0.044054
0.0411053
0.0386168
0.0365706
0.0349518
0.0337482
0.0329508
0.0325537
0.979048
0.937208
0.895561
0.854234
0.813349
0.773025
0.733374
0.694502
0.656506
0.619475
0.583489
0.548619
0.514924
0.482456
0.451255
0.421352
0.392769
0.365517
0.339601
0.315018
0.291755
0.269797
0.249118
0.229691
0.211482
0.194454
0.178568
0.163782
0.150051
0.137331
0.125575
0.114738
0.104775
0.095639
0.087288
0.0796793
0.0727721
0.0665277
0.0609097
0.0558837
0.0514181
0.0474837
0.0440539
0.0411053
0.0386168
0.0365706
0.0349518
0.0337482
0.0329509
0.0325537
0.979048
0.937208
0.895561
0.854234
0.813349
0.773025
0.733374
0.694502
0.656506
0.619475
0.583489
0.548619
0.514924
0.482456
0.451255
0.421352
0.392769
0.365517
0.339601
0.315018
0.291755
0.269797
0.249118
0.229691
0.211482
0.194454
0.178568
0.163782
0.150051
0.137331
0.125575
0.114738
0.104774
0.0956389
0.0872879
0.0796792
0.072772
0.0665277
0.0609096
0.0558837
0.0514181
0.0474837
0.0440539
0.0411053
0.0386168
0.0365707
0.0349518
0.0337482
0.0329509
0.0325538
0.979048
0.937208
0.895561
0.854234
0.813349
0.773025
0.733374
0.694502
0.656506
0.619475
0.583489
0.548619
0.514924
0.482456
0.451255
0.421352
0.392769
0.365517
0.339601
0.315018
0.291755
0.269797
0.249118
0.229691
0.211482
0.194454
0.178568
0.163782
0.150051
0.137331
0.125575
0.114738
0.104774
0.0956388
0.0872879
0.0796791
0.0727719
0.0665276
0.0609096
0.0558837
0.0514181
0.0474837
0.0440539
0.0411053
0.0386168
0.0365707
0.0349518
0.0337483
0.0329509
0.0325538
0.979048
0.937208
0.895561
0.854234
0.813349
0.773025
0.733374
0.694502
0.656506
0.619475
0.583489
0.548619
0.514924
0.482456
0.451255
0.421352
0.392769
0.365517
0.339601
0.315018
0.291755
0.269797
0.249118
0.229691
0.211482
0.194454
0.178568
0.163782
0.150051
0.137331
0.125575
0.114738
0.104774
0.0956388
0.0872878
0.0796791
0.0727719
0.0665276
0.0609096
0.0558837
0.0514181
0.0474837
0.044054
0.0411053
0.0386169
0.0365707
0.0349519
0.0337483
0.032951
0.0325539
0.979048
0.937208
0.895561
0.854234
0.813349
0.773025
0.733374
0.694502
0.656506
0.619475
0.583489
0.548619
0.514924
0.482456
0.451255
0.421352
0.392769
0.365517
0.339601
0.315018
0.291755
0.269797
0.249118
0.229691
0.211482
0.194454
0.178568
0.163782
0.150051
0.137331
0.125575
0.114738
0.104774
0.0956388
0.0872878
0.0796791
0.0727719
0.0665276
0.0609096
0.0558837
0.0514181
0.0474837
0.044054
0.0411054
0.0386169
0.0365708
0.034952
0.0337484
0.0329511
0.0325539
0.979048
0.937208
0.895561
0.854234
0.813349
0.773025
0.733374
0.694502
0.656506
0.619475
0.583489
0.548619
0.514925
0.482456
0.451255
0.421352
0.392769
0.365517
0.339601
0.315018
0.291755
0.269797
0.249118
0.229691
0.211482
0.194454
0.178568
0.163782
0.150051
0.137331
0.125575
0.114738
0.104774
0.0956387
0.0872878
0.079679
0.0727719
0.0665276
0.0609096
0.0558837
0.0514181
0.0474837
0.0440541
0.0411054
0.038617
0.0365709
0.034952
0.0337485
0.0329511
0.032554
0.979048
0.937208
0.895561
0.854234
0.813349
0.773025
0.733374
0.694502
0.656506
0.619475
0.583489
0.548619
0.514925
0.482457
0.451255
0.421352
0.392769
0.365517
0.339601
0.315018
0.291756
0.269797
0.249118
0.229691
0.211482
0.194454
0.178568
0.163782
0.150051
0.137331
0.125575
0.114738
0.104774
0.0956387
0.0872878
0.079679
0.0727719
0.0665276
0.0609096
0.0558837
0.0514182
0.0474838
0.0440541
0.0411055
0.0386171
0.0365709
0.0349521
0.0337485
0.0329512
0.0325541
0.979048
0.937208
0.895561
0.854234
0.813349
0.773025
0.733374
0.694502
0.656506
0.619475
0.583489
0.548619
0.514925
0.482457
0.451256
0.421352
0.392769
0.365517
0.339601
0.315018
0.291756
0.269797
0.249118
0.229691
0.211482
0.194454
0.178568
0.163782
0.150051
0.137331
0.125575
0.114738
0.104774
0.0956387
0.0872878
0.079679
0.0727719
0.0665276
0.0609096
0.0558838
0.0514182
0.0474838
0.0440542
0.0411055
0.0386171
0.036571
0.0349522
0.0337486
0.0329513
0.0325542
0.979048
0.937208
0.895561
0.854234
0.813349
0.773025
0.733374
0.694502
0.656506
0.619475
0.583489
0.548619
0.514925
0.482457
0.451256
0.421352
0.392769
0.365517
0.339601
0.315018
0.291756
0.269797
0.249118
0.229691
0.211482
0.194454
0.178568
0.163782
0.150051
0.137331
0.125575
0.114738
0.104774
0.0956387
0.0872878
0.079679
0.0727719
0.0665276
0.0609097
0.0558838
0.0514182
0.0474839
0.0440542
0.0411056
0.0386172
0.0365711
0.0349522
0.0337487
0.0329514
0.0325542
0.979048
0.937208
0.895561
0.854234
0.813349
0.773025
0.733374
0.694502
0.656506
0.619475
0.583489
0.548619
0.514925
0.482457
0.451256
0.421352
0.392769
0.365517
0.339601
0.315018
0.291756
0.269797
0.249118
0.229691
0.211482
0.194454
0.178568
0.163782
0.150051
0.137331
0.125575
0.114738
0.104774
0.0956387
0.0872878
0.079679
0.0727719
0.0665276
0.0609097
0.0558838
0.0514183
0.0474839
0.0440542
0.0411056
0.0386172
0.0365711
0.0349523
0.0337487
0.0329514
0.0325543
0.979048
0.937208
0.895561
0.854234
0.813349
0.773025
0.733374
0.694502
0.656506
0.619475
0.583489
0.548619
0.514925
0.482457
0.451256
0.421352
0.392769
0.365517
0.339601
0.315018
0.291756
0.269797
0.249118
0.229691
0.211482
0.194454
0.178568
0.163782
0.150051
0.137331
0.125575
0.114738
0.104774
0.0956387
0.0872878
0.079679
0.0727719
0.0665276
0.0609097
0.0558838
0.0514183
0.0474839
0.0440543
0.0411057
0.0386173
0.0365712
0.0349524
0.0337488
0.0329515
0.0325544
)
;

boundaryField
{
    inlet
    {
        type            fixedValue;
        value           uniform 1;
    }
    outlet
    {
        type            zeroGradient;
    }
    lowerWall
    {
        type            zeroGradient;
    }
    upperWall
    {
        type            zeroGradient;
    }
    frontAndBack
    {
        type            empty;
    }
}


// ************************************************************************* //
