/*--------------------------------*- C++ -*----------------------------------*\
  =========                 |
  \\      /  F ield         | OpenFOAM: The Open Source CFD Toolbox
   \\    /   O peration     | Website:  https://openfoam.org
    \\  /    A nd           | Version:  12
     \\/     M anipulation  |
\*---------------------------------------------------------------------------*/
FoamFile
{
    format      ascii;
    class       volScalarField;
    location    "14";
    object      T;
}
// * * * * * * * * * * * * * * * * * * * * * * * * * * * * * * * * * * * * * //

dimensions      [0 0 0 1 0 0 0];

internalField   nonuniform List<scalar> 
1250
(
0.984548
0.95367
0.922867
0.892191
0.861691
0.831415
0.801412
0.771727
0.742407
0.713493
0.685027
0.657049
0.629596
0.602702
0.5764
0.550719
0.525689
0.501332
0.477672
0.454729
0.43252
0.411059
0.39036
0.370432
0.351283
0.332919
0.315345
0.298561
0.282568
0.267365
0.25295
0.239318
0.226464
0.214383
0.203068
0.192511
0.182706
0.173644
0.165318
0.157718
0.150839
0.144671
0.139208
0.134444
0.130372
0.126988
0.124285
0.122262
0.120915
0.120242
0.984548
0.95367
0.922867
0.892191
0.861691
0.831415
0.801412
0.771727
0.742407
0.713493
0.685027
0.657049
0.629596
0.602702
0.5764
0.550719
0.525689
0.501332
0.477672
0.454729
0.43252
0.411059
0.39036
0.370432
0.351283
0.332919
0.315345
0.298561
0.282568
0.267365
0.25295
0.239318
0.226464
0.214383
0.203068
0.192511
0.182706
0.173644
0.165317
0.157718
0.150839
0.144671
0.139208
0.134444
0.130372
0.126988
0.124285
0.122262
0.120915
0.120242
0.984548
0.95367
0.922867
0.892191
0.861691
0.831415
0.801412
0.771727
0.742407
0.713493
0.685027
0.657049
0.629596
0.602702
0.5764
0.550719
0.525688
0.501332
0.477672
0.454729
0.43252
0.411059
0.39036
0.370432
0.351283
0.332919
0.315345
0.298561
0.282568
0.267365
0.25295
0.239318
0.226464
0.214383
0.203068
0.192511
0.182706
0.173644
0.165317
0.157718
0.150838
0.144671
0.139208
0.134444
0.130372
0.126987
0.124285
0.122262
0.120915
0.120242
0.984548
0.95367
0.922867
0.892191
0.861691
0.831415
0.801412
0.771727
0.742407
0.713493
0.685027
0.657049
0.629596
0.602701
0.576399
0.550719
0.525688
0.501332
0.477672
0.454729
0.43252
0.411059
0.39036
0.370432
0.351283
0.332919
0.315344
0.298561
0.282568
0.267365
0.25295
0.239317
0.226464
0.214383
0.203067
0.192511
0.182706
0.173644
0.165317
0.157718
0.150838
0.144671
0.139208
0.134444
0.130372
0.126987
0.124285
0.122262
0.120914
0.120241
0.984548
0.95367
0.922867
0.892191
0.86169
0.831415
0.801412
0.771727
0.742406
0.713493
0.685027
0.657049
0.629595
0.602701
0.576399
0.550719
0.525688
0.501332
0.477672
0.454729
0.432519
0.411059
0.390359
0.370431
0.351283
0.332919
0.315344
0.29856
0.282568
0.267365
0.252949
0.239317
0.226464
0.214382
0.203067
0.192511
0.182705
0.173644
0.165317
0.157718
0.150838
0.14467
0.139208
0.134444
0.130372
0.126987
0.124285
0.122262
0.120914
0.120241
0.984548
0.953669
0.922867
0.892191
0.86169
0.831415
0.801411
0.771727
0.742406
0.713492
0.685027
0.657049
0.629595
0.602701
0.576399
0.550719
0.525688
0.501331
0.477672
0.454728
0.432519
0.411058
0.390359
0.370431
0.351282
0.332919
0.315344
0.29856
0.282567
0.267365
0.252949
0.239317
0.226463
0.214382
0.203067
0.19251
0.182705
0.173643
0.165317
0.157717
0.150838
0.14467
0.139208
0.134443
0.130372
0.126987
0.124285
0.122261
0.120914
0.120241
0.984548
0.953669
0.922867
0.892191
0.86169
0.831415
0.801411
0.771727
0.742406
0.713492
0.685027
0.657048
0.629595
0.602701
0.576399
0.550718
0.525687
0.501331
0.477671
0.454728
0.432519
0.411058
0.390359
0.370431
0.351282
0.332918
0.315343
0.29856
0.282567
0.267364
0.252949
0.239317
0.226463
0.214382
0.203067
0.19251
0.182705
0.173643
0.165316
0.157717
0.150837
0.14467
0.139207
0.134443
0.130371
0.126986
0.124284
0.122261
0.120914
0.120241
0.984548
0.953669
0.922867
0.892191
0.86169
0.831414
0.801411
0.771727
0.742406
0.713492
0.685026
0.657048
0.629595
0.6027
0.576398
0.550718
0.525687
0.501331
0.477671
0.454728
0.432518
0.411058
0.390358
0.37043
0.351281
0.332918
0.315343
0.298559
0.282566
0.267364
0.252948
0.239316
0.226462
0.214381
0.203066
0.19251
0.182704
0.173642
0.165316
0.157717
0.150837
0.144669
0.139207
0.134443
0.130371
0.126986
0.124284
0.122261
0.120913
0.12024
0.984548
0.953669
0.922867
0.89219
0.86169
0.831414
0.801411
0.771726
0.742406
0.713492
0.685026
0.657048
0.629594
0.6027
0.576398
0.550718
0.525687
0.50133
0.47767
0.454727
0.432518
0.411057
0.390358
0.37043
0.351281
0.332917
0.315343
0.298559
0.282566
0.267363
0.252948
0.239316
0.226462
0.214381
0.203066
0.192509
0.182704
0.173642
0.165315
0.157716
0.150837
0.144669
0.139206
0.134442
0.13037
0.126986
0.124284
0.12226
0.120913
0.12024
0.984548
0.953669
0.922867
0.89219
0.86169
0.831414
0.801411
0.771726
0.742405
0.713491
0.685026
0.657047
0.629594
0.6027
0.576397
0.550717
0.525686
0.50133
0.47767
0.454727
0.432517
0.411057
0.390357
0.370429
0.35128
0.332917
0.315342
0.298558
0.282566
0.267363
0.252947
0.239315
0.226462
0.21438
0.203065
0.192509
0.182704
0.173642
0.165315
0.157716
0.150836
0.144669
0.139206
0.134442
0.13037
0.126985
0.124283
0.12226
0.120913
0.12024
0.984548
0.953669
0.922867
0.89219
0.86169
0.831414
0.801411
0.771726
0.742405
0.713491
0.685025
0.657047
0.629593
0.602699
0.576397
0.550717
0.525686
0.501329
0.477669
0.454726
0.432517
0.411056
0.390357
0.370429
0.35128
0.332916
0.315342
0.298558
0.282565
0.267362
0.252947
0.239315
0.226461
0.21438
0.203065
0.192508
0.182703
0.173641
0.165315
0.157715
0.150836
0.144668
0.139206
0.134441
0.13037
0.126985
0.124283
0.122259
0.120912
0.120239
0.984548
0.953669
0.922867
0.89219
0.86169
0.831414
0.80141
0.771726
0.742405
0.713491
0.685025
0.657047
0.629593
0.602699
0.576397
0.550716
0.525685
0.501329
0.477669
0.454726
0.432516
0.411056
0.390356
0.370428
0.351279
0.332916
0.315341
0.298557
0.282565
0.267362
0.252946
0.239314
0.226461
0.214379
0.203064
0.192508
0.182703
0.173641
0.165314
0.157715
0.150835
0.144668
0.139205
0.134441
0.130369
0.126985
0.124282
0.122259
0.120912
0.120239
0.984548
0.953669
0.922866
0.89219
0.861689
0.831414
0.80141
0.771726
0.742405
0.713491
0.685025
0.657046
0.629593
0.602699
0.576396
0.550716
0.525685
0.501328
0.477668
0.454725
0.432516
0.411055
0.390356
0.370428
0.351279
0.332915
0.31534
0.298557
0.282564
0.267361
0.252946
0.239314
0.22646
0.214379
0.203064
0.192507
0.182702
0.17364
0.165314
0.157714
0.150835
0.144667
0.139205
0.134441
0.130369
0.126984
0.124282
0.122259
0.120911
0.120238
0.984548
0.953669
0.922866
0.89219
0.861689
0.831413
0.80141
0.771725
0.742404
0.71349
0.685024
0.657046
0.629592
0.602698
0.576396
0.550716
0.525685
0.501328
0.477668
0.454725
0.432515
0.411055
0.390355
0.370427
0.351278
0.332915
0.31534
0.298556
0.282563
0.267361
0.252945
0.239313
0.226459
0.214378
0.203063
0.192507
0.182702
0.17364
0.165313
0.157714
0.150834
0.144667
0.139204
0.13444
0.130368
0.126984
0.124282
0.122258
0.120911
0.120238
0.984548
0.953669
0.922866
0.89219
0.861689
0.831413
0.80141
0.771725
0.742404
0.71349
0.685024
0.657046
0.629592
0.602698
0.576396
0.550715
0.525684
0.501327
0.477668
0.454724
0.432515
0.411054
0.390355
0.370427
0.351278
0.332914
0.315339
0.298556
0.282563
0.26736
0.252945
0.239313
0.226459
0.214378
0.203063
0.192506
0.182701
0.173639
0.165313
0.157713
0.150834
0.144666
0.139204
0.13444
0.130368
0.126983
0.124281
0.122258
0.120911
0.120238
0.984548
0.953669
0.922866
0.89219
0.861689
0.831413
0.80141
0.771725
0.742404
0.71349
0.685024
0.657046
0.629592
0.602698
0.576395
0.550715
0.525684
0.501327
0.477667
0.454724
0.432514
0.411054
0.390354
0.370426
0.351277
0.332914
0.315339
0.298555
0.282562
0.26736
0.252944
0.239312
0.226458
0.214377
0.203062
0.192506
0.182701
0.173639
0.165312
0.157713
0.150834
0.144666
0.139204
0.134439
0.130368
0.126983
0.124281
0.122258
0.12091
0.120237
0.984548
0.953669
0.922866
0.89219
0.861689
0.831413
0.801409
0.771725
0.742404
0.71349
0.685024
0.657045
0.629592
0.602697
0.576395
0.550714
0.525683
0.501327
0.477667
0.454723
0.432514
0.411053
0.390354
0.370426
0.351277
0.332913
0.315339
0.298555
0.282562
0.267359
0.252944
0.239312
0.226458
0.214377
0.203062
0.192505
0.1827
0.173638
0.165312
0.157713
0.150833
0.144666
0.139203
0.134439
0.130367
0.126983
0.124281
0.122257
0.12091
0.120237
0.984548
0.953669
0.922866
0.89219
0.861689
0.831413
0.801409
0.771725
0.742404
0.713489
0.685023
0.657045
0.629591
0.602697
0.576395
0.550714
0.525683
0.501326
0.477666
0.454723
0.432514
0.411053
0.390354
0.370425
0.351277
0.332913
0.315338
0.298554
0.282562
0.267359
0.252943
0.239311
0.226458
0.214377
0.203061
0.192505
0.1827
0.173638
0.165311
0.157712
0.150833
0.144665
0.139203
0.134439
0.130367
0.126982
0.12428
0.122257
0.12091
0.120237
0.984548
0.953669
0.922866
0.892189
0.861689
0.831413
0.801409
0.771724
0.742403
0.713489
0.685023
0.657045
0.629591
0.602697
0.576394
0.550714
0.525683
0.501326
0.477666
0.454723
0.432513
0.411053
0.390353
0.370425
0.351276
0.332913
0.315338
0.298554
0.282561
0.267358
0.252943
0.239311
0.226457
0.214376
0.203061
0.192505
0.1827
0.173638
0.165311
0.157712
0.150833
0.144665
0.139203
0.134439
0.130367
0.126982
0.12428
0.122257
0.12091
0.120237
0.984548
0.953669
0.922866
0.892189
0.861689
0.831413
0.801409
0.771724
0.742403
0.713489
0.685023
0.657045
0.629591
0.602697
0.576394
0.550714
0.525683
0.501326
0.477666
0.454723
0.432513
0.411052
0.390353
0.370425
0.351276
0.332912
0.315337
0.298554
0.282561
0.267358
0.252943
0.239311
0.226457
0.214376
0.203061
0.192504
0.182699
0.173637
0.165311
0.157712
0.150832
0.144665
0.139202
0.134438
0.130367
0.126982
0.12428
0.122257
0.12091
0.120237
0.984548
0.953669
0.922866
0.892189
0.861689
0.831413
0.801409
0.771724
0.742403
0.713489
0.685023
0.657045
0.629591
0.602696
0.576394
0.550714
0.525682
0.501326
0.477666
0.454722
0.432513
0.411052
0.390353
0.370425
0.351276
0.332912
0.315337
0.298553
0.282561
0.267358
0.252942
0.23931
0.226457
0.214376
0.20306
0.192504
0.182699
0.173637
0.165311
0.157712
0.150832
0.144665
0.139202
0.134438
0.130367
0.126982
0.12428
0.122257
0.12091
0.120236
0.984548
0.953669
0.922866
0.892189
0.861689
0.831413
0.801409
0.771724
0.742403
0.713489
0.685023
0.657044
0.629591
0.602696
0.576394
0.550713
0.525682
0.501326
0.477666
0.454722
0.432513
0.411052
0.390353
0.370424
0.351276
0.332912
0.315337
0.298553
0.28256
0.267358
0.252942
0.23931
0.226456
0.214375
0.20306
0.192504
0.182699
0.173637
0.165311
0.157711
0.150832
0.144665
0.139202
0.134438
0.130366
0.126982
0.12428
0.122257
0.120909
0.120236
0.984548
0.953669
0.922866
0.892189
0.861689
0.831413
0.801409
0.771724
0.742403
0.713489
0.685023
0.657044
0.629591
0.602696
0.576394
0.550713
0.525682
0.501325
0.477665
0.454722
0.432513
0.411052
0.390352
0.370424
0.351275
0.332912
0.315337
0.298553
0.28256
0.267357
0.252942
0.23931
0.226456
0.214375
0.20306
0.192504
0.182699
0.173637
0.16531
0.157711
0.150832
0.144665
0.139202
0.134438
0.130366
0.126982
0.12428
0.122257
0.120909
0.120236
0.984548
0.953669
0.922866
0.892189
0.861689
0.831413
0.801409
0.771724
0.742403
0.713489
0.685023
0.657044
0.629591
0.602696
0.576394
0.550713
0.525682
0.501325
0.477665
0.454722
0.432513
0.411052
0.390352
0.370424
0.351275
0.332912
0.315337
0.298553
0.28256
0.267357
0.252942
0.23931
0.226456
0.214375
0.20306
0.192504
0.182699
0.173637
0.16531
0.157711
0.150832
0.144665
0.139202
0.134438
0.130366
0.126982
0.12428
0.122257
0.120909
0.120236
0.984548
0.953669
0.922866
0.892189
0.861689
0.831413
0.801409
0.771724
0.742403
0.713489
0.685023
0.657044
0.629591
0.602696
0.576394
0.550713
0.525682
0.501325
0.477665
0.454722
0.432513
0.411052
0.390352
0.370424
0.351275
0.332911
0.315337
0.298553
0.28256
0.267357
0.252942
0.23931
0.226456
0.214375
0.20306
0.192504
0.182699
0.173637
0.16531
0.157711
0.150832
0.144665
0.139202
0.134438
0.130366
0.126982
0.12428
0.122257
0.120909
0.120236
)
;

boundaryField
{
    inlet
    {
        type            fixedValue;
        value           uniform 1;
    }
    outlet
    {
        type            zeroGradient;
    }
    lowerWall
    {
        type            zeroGradient;
    }
    upperWall
    {
        type            zeroGradient;
    }
    frontAndBack
    {
        type            empty;
    }
}


// ************************************************************************* //
