/*--------------------------------*- C++ -*----------------------------------*\
  =========                 |
  \\      /  F ield         | OpenFOAM: The Open Source CFD Toolbox
   \\    /   O peration     | Website:  https://openfoam.org
    \\  /    A nd           | Version:  12
     \\/     M anipulation  |
\*---------------------------------------------------------------------------*/
FoamFile
{
    format      ascii;
    class       volScalarField;
    location    "5";
    object      T;
}
// * * * * * * * * * * * * * * * * * * * * * * * * * * * * * * * * * * * * * //

dimensions      [0 0 0 1 0 0 0];

internalField   nonuniform List<scalar> 
1250
(
0.972637
0.918067
0.863964
0.810626
0.758334
0.707346
0.657891
0.610169
0.564347
0.520559
0.478906
0.439459
0.402258
0.367317
0.334625
0.304151
0.275843
0.249638
0.225457
0.203214
0.182813
0.164155
0.147137
0.131657
0.117611
0.104897
0.0934152
0.0830707
0.0737714
0.06543
0.0579642
0.0512964
0.0453545
0.0400715
0.0353854
0.0312395
0.0275817
0.0243647
0.0215459
0.0190869
0.0169532
0.0151145
0.0135441
0.0122187
0.0111184
0.0102265
0.00952911
0.0090155
0.00867761
0.00851004
0.972637
0.918067
0.863964
0.810626
0.758334
0.707346
0.657891
0.610169
0.564347
0.520559
0.478906
0.439459
0.402258
0.367317
0.334625
0.304151
0.275843
0.249638
0.225457
0.203214
0.182813
0.164155
0.147137
0.131657
0.117611
0.104897
0.0934152
0.0830707
0.0737714
0.0654301
0.0579642
0.0512964
0.0453545
0.0400715
0.0353854
0.0312395
0.0275817
0.0243647
0.0215459
0.0190868
0.0169532
0.0151145
0.0135441
0.0122187
0.0111184
0.0102264
0.00952899
0.00901531
0.00867736
0.00850992
0.972637
0.918067
0.863964
0.810626
0.758334
0.707346
0.657891
0.610169
0.564347
0.520559
0.478906
0.439459
0.402258
0.367317
0.334625
0.304151
0.275843
0.249638
0.225457
0.203214
0.182813
0.164155
0.147137
0.131657
0.117611
0.104897
0.0934152
0.0830707
0.0737714
0.06543
0.0579642
0.0512964
0.0453545
0.0400715
0.0353854
0.0312395
0.0275816
0.0243647
0.0215459
0.0190868
0.0169531
0.0151144
0.013544
0.0122186
0.0111183
0.0102264
0.00952904
0.00901538
0.00867736
0.00850985
0.972637
0.918067
0.863964
0.810626
0.758334
0.707346
0.657891
0.610169
0.564347
0.520559
0.478906
0.439459
0.402258
0.367317
0.334625
0.304151
0.275843
0.249638
0.225457
0.203214
0.182813
0.164155
0.147137
0.131657
0.117611
0.104897
0.0934152
0.0830707
0.0737714
0.06543
0.0579641
0.0512964
0.0453545
0.0400714
0.0353854
0.0312394
0.0275816
0.0243646
0.0215458
0.0190867
0.0169531
0.0151144
0.013544
0.0122186
0.0111183
0.0102263
0.00952898
0.00901538
0.00867738
0.00850982
0.972637
0.918067
0.863964
0.810626
0.758334
0.707346
0.657891
0.610169
0.564347
0.520559
0.478906
0.439459
0.402258
0.367317
0.334625
0.304151
0.275843
0.249638
0.225457
0.203214
0.182813
0.164155
0.147137
0.131657
0.117611
0.104897
0.0934151
0.0830706
0.0737713
0.06543
0.0579641
0.0512963
0.0453544
0.0400714
0.0353853
0.0312394
0.0275815
0.0243646
0.0215458
0.0190867
0.016953
0.0151144
0.0135439
0.0122186
0.0111183
0.0102263
0.00952892
0.00901534
0.00867739
0.0085098
0.972637
0.918067
0.863964
0.810626
0.758334
0.707346
0.657891
0.610169
0.564347
0.520559
0.478907
0.439459
0.402258
0.367317
0.334625
0.304151
0.275843
0.249638
0.225457
0.203214
0.182813
0.164155
0.147137
0.131657
0.117611
0.104897
0.0934151
0.0830706
0.0737713
0.0654299
0.057964
0.0512962
0.0453544
0.0400713
0.0353853
0.0312393
0.0275815
0.0243645
0.0215457
0.0190866
0.016953
0.0151143
0.0135439
0.0122185
0.0111182
0.0102263
0.00952891
0.00901531
0.00867738
0.0085098
0.972637
0.918067
0.863964
0.810626
0.758334
0.707346
0.657891
0.610169
0.564347
0.520559
0.478907
0.439459
0.402258
0.367317
0.334625
0.304151
0.275843
0.249638
0.225457
0.203214
0.182813
0.164155
0.147137
0.131657
0.117611
0.104897
0.093415
0.0830705
0.0737712
0.0654298
0.0579639
0.0512962
0.0453543
0.0400713
0.0353852
0.0312392
0.0275814
0.0243645
0.0215457
0.0190866
0.0169529
0.0151143
0.0135439
0.0122185
0.0111182
0.0102263
0.00952891
0.0090153
0.00867738
0.0085098
0.972637
0.918067
0.863964
0.810626
0.758334
0.707346
0.657891
0.610169
0.564347
0.520559
0.478907
0.439459
0.402258
0.367317
0.334625
0.304151
0.275843
0.249638
0.225457
0.203214
0.182812
0.164155
0.147137
0.131657
0.117611
0.104896
0.0934149
0.0830704
0.0737711
0.0654297
0.0579639
0.0512961
0.0453542
0.0400712
0.0353851
0.0312392
0.0275813
0.0243644
0.0215456
0.0190865
0.0169529
0.0151142
0.0135438
0.0122185
0.0111182
0.0102263
0.00952891
0.00901531
0.00867738
0.00850981
0.972637
0.918067
0.863964
0.810626
0.758334
0.707346
0.657891
0.610169
0.564347
0.520559
0.478907
0.439459
0.402258
0.367317
0.334625
0.304151
0.275843
0.249638
0.225457
0.203214
0.182812
0.164154
0.147137
0.131657
0.117611
0.104896
0.0934149
0.0830703
0.073771
0.0654297
0.0579638
0.051296
0.0453541
0.0400711
0.035385
0.0312391
0.0275813
0.0243643
0.0215456
0.0190865
0.0169529
0.0151142
0.0135438
0.0122185
0.0111182
0.0102263
0.00952893
0.00901532
0.0086774
0.00850983
0.972637
0.918067
0.863964
0.810626
0.758334
0.707346
0.657891
0.610169
0.564347
0.520559
0.478907
0.439459
0.402258
0.367317
0.334625
0.30415
0.275843
0.249638
0.225457
0.203213
0.182812
0.164154
0.147137
0.131657
0.117611
0.104896
0.0934148
0.0830703
0.0737709
0.0654296
0.0579637
0.0512959
0.045354
0.040071
0.035385
0.031239
0.0275812
0.0243643
0.0215455
0.0190865
0.0169528
0.0151142
0.0135438
0.0122185
0.0111182
0.0102263
0.00952895
0.00901535
0.00867743
0.00850986
0.972637
0.918067
0.863964
0.810626
0.758334
0.707346
0.657891
0.610169
0.564347
0.520559
0.478907
0.439459
0.402258
0.367317
0.334625
0.30415
0.275843
0.249638
0.225457
0.203213
0.182812
0.164154
0.147137
0.131657
0.117611
0.104896
0.0934147
0.0830702
0.0737708
0.0654295
0.0579636
0.0512958
0.0453539
0.0400709
0.0353849
0.0312389
0.0275811
0.0243642
0.0215455
0.0190864
0.0169528
0.0151142
0.0135438
0.0122185
0.0111182
0.0102263
0.00952898
0.00901539
0.00867748
0.00850991
0.972637
0.918067
0.863964
0.810626
0.758334
0.707346
0.657891
0.610169
0.564347
0.520559
0.478907
0.439459
0.402258
0.367317
0.334625
0.30415
0.275843
0.249638
0.225457
0.203213
0.182812
0.164154
0.147137
0.131657
0.11761
0.104896
0.0934146
0.0830701
0.0737708
0.0654294
0.0579635
0.0512957
0.0453538
0.0400708
0.0353848
0.0312389
0.0275811
0.0243642
0.0215454
0.0190864
0.0169528
0.0151142
0.0135438
0.0122185
0.0111183
0.0102263
0.00952903
0.00901544
0.00867753
0.00850997
0.972637
0.918067
0.863964
0.810626
0.758334
0.707346
0.657891
0.610169
0.564347
0.520559
0.478906
0.439459
0.402258
0.367317
0.334625
0.30415
0.275843
0.249638
0.225457
0.203213
0.182812
0.164154
0.147137
0.131657
0.11761
0.104896
0.0934145
0.08307
0.0737707
0.0654293
0.0579634
0.0512956
0.0453538
0.0400708
0.0353847
0.0312388
0.027581
0.0243641
0.0215454
0.0190864
0.0169528
0.0151142
0.0135438
0.0122185
0.0111183
0.0102264
0.00952909
0.00901551
0.0086776
0.00851004
0.972637
0.918067
0.863964
0.810626
0.758334
0.707346
0.657891
0.610169
0.564347
0.520559
0.478906
0.439459
0.402258
0.367317
0.334625
0.30415
0.275843
0.249638
0.225457
0.203213
0.182812
0.164154
0.147137
0.131657
0.11761
0.104896
0.0934144
0.0830699
0.0737706
0.0654292
0.0579633
0.0512955
0.0453537
0.0400707
0.0353847
0.0312388
0.027581
0.0243641
0.0215454
0.0190864
0.0169528
0.0151142
0.0135439
0.0122186
0.0111183
0.0102265
0.00952916
0.00901558
0.00867768
0.00851012
0.972637
0.918067
0.863964
0.810626
0.758334
0.707346
0.657891
0.610169
0.564347
0.520559
0.478906
0.439459
0.402258
0.367317
0.334625
0.30415
0.275843
0.249638
0.225457
0.203213
0.182812
0.164154
0.147137
0.131657
0.11761
0.104896
0.0934144
0.0830698
0.0737705
0.0654291
0.0579632
0.0512955
0.0453536
0.0400706
0.0353846
0.0312387
0.0275809
0.0243641
0.0215454
0.0190864
0.0169528
0.0151142
0.0135439
0.0122186
0.0111184
0.0102265
0.00952924
0.00901567
0.00867777
0.00851021
0.972637
0.918067
0.863964
0.810626
0.758334
0.707346
0.657891
0.610169
0.564347
0.520559
0.478906
0.439459
0.402258
0.367317
0.334625
0.30415
0.275843
0.249638
0.225457
0.203213
0.182812
0.164154
0.147137
0.131657
0.11761
0.104896
0.0934143
0.0830697
0.0737704
0.065429
0.0579632
0.0512954
0.0453535
0.0400706
0.0353846
0.0312387
0.0275809
0.0243641
0.0215453
0.0190864
0.0169528
0.0151143
0.013544
0.0122187
0.0111185
0.0102266
0.00952933
0.00901577
0.00867787
0.00851031
0.972637
0.918067
0.863964
0.810626
0.758334
0.707346
0.657891
0.610169
0.564347
0.520559
0.478906
0.439459
0.402258
0.367317
0.334625
0.30415
0.275843
0.249638
0.225457
0.203213
0.182812
0.164154
0.147137
0.131656
0.11761
0.104896
0.0934142
0.0830697
0.0737704
0.065429
0.0579631
0.0512953
0.0453535
0.0400705
0.0353845
0.0312386
0.0275809
0.024364
0.0215453
0.0190864
0.0169529
0.0151143
0.013544
0.0122187
0.0111186
0.0102267
0.00952943
0.00901588
0.00867798
0.00851042
0.972637
0.918067
0.863964
0.810626
0.758334
0.707346
0.657891
0.610169
0.564347
0.520559
0.478906
0.439459
0.402258
0.367317
0.334625
0.30415
0.275843
0.249638
0.225457
0.203213
0.182812
0.164154
0.147137
0.131656
0.11761
0.104896
0.0934142
0.0830696
0.0737703
0.0654289
0.057963
0.0512953
0.0453534
0.0400705
0.0353845
0.0312386
0.0275809
0.024364
0.0215454
0.0190864
0.0169529
0.0151144
0.0135441
0.0122188
0.0111187
0.0102268
0.00952954
0.00901599
0.0086781
0.00851054
0.972637
0.918067
0.863964
0.810626
0.758334
0.707346
0.657891
0.610169
0.564347
0.520559
0.478906
0.439459
0.402258
0.367317
0.334625
0.30415
0.275843
0.249638
0.225457
0.203213
0.182812
0.164154
0.147137
0.131656
0.11761
0.104896
0.0934141
0.0830696
0.0737702
0.0654289
0.057963
0.0512952
0.0453534
0.0400704
0.0353844
0.0312386
0.0275809
0.024364
0.0215454
0.0190864
0.0169529
0.0151144
0.0135442
0.0122189
0.0111188
0.0102269
0.00952966
0.00901611
0.00867822
0.00851067
0.972637
0.918067
0.863964
0.810626
0.758334
0.707346
0.657891
0.610169
0.564347
0.520559
0.478906
0.439459
0.402258
0.367317
0.334625
0.30415
0.275843
0.249638
0.225457
0.203213
0.182812
0.164154
0.147137
0.131656
0.11761
0.104896
0.0934141
0.0830695
0.0737702
0.0654288
0.0579629
0.0512952
0.0453534
0.0400704
0.0353844
0.0312386
0.0275809
0.024364
0.0215454
0.0190865
0.016953
0.0151145
0.0135442
0.012219
0.0111189
0.010227
0.00952978
0.00901624
0.00867835
0.00851079
0.972637
0.918067
0.863964
0.810626
0.758334
0.707346
0.657891
0.610169
0.564347
0.520559
0.478906
0.439459
0.402258
0.367317
0.334625
0.30415
0.275843
0.249637
0.225457
0.203213
0.182812
0.164154
0.147137
0.131656
0.11761
0.104896
0.093414
0.0830695
0.0737702
0.0654288
0.0579629
0.0512952
0.0453533
0.0400704
0.0353844
0.0312385
0.0275809
0.0243641
0.0215454
0.0190865
0.016953
0.0151145
0.0135443
0.0122191
0.011119
0.0102271
0.00952989
0.00901636
0.00867848
0.00851092
0.972637
0.918067
0.863964
0.810626
0.758334
0.707346
0.657891
0.610169
0.564347
0.520559
0.478906
0.439459
0.402258
0.367317
0.334625
0.30415
0.275843
0.249637
0.225457
0.203213
0.182812
0.164154
0.147136
0.131656
0.11761
0.104896
0.093414
0.0830695
0.0737701
0.0654287
0.0579629
0.0512951
0.0453533
0.0400703
0.0353844
0.0312385
0.0275809
0.0243641
0.0215454
0.0190865
0.0169531
0.0151146
0.0135444
0.0122192
0.0111191
0.0102273
0.00953001
0.00901648
0.00867861
0.00851105
0.972637
0.918067
0.863964
0.810626
0.758334
0.707345
0.65789
0.610169
0.564347
0.520559
0.478906
0.439459
0.402258
0.367317
0.334625
0.30415
0.275843
0.249637
0.225457
0.203213
0.182812
0.164154
0.147136
0.131656
0.11761
0.104896
0.093414
0.0830694
0.0737701
0.0654287
0.0579628
0.0512951
0.0453533
0.0400703
0.0353844
0.0312385
0.0275809
0.0243641
0.0215455
0.0190866
0.0169531
0.0151147
0.0135445
0.0122193
0.0111192
0.0102274
0.00953013
0.0090166
0.00867873
0.00851117
0.972637
0.918067
0.863964
0.810626
0.758334
0.707345
0.65789
0.610169
0.564347
0.520559
0.478906
0.439459
0.402258
0.367317
0.334625
0.30415
0.275843
0.249637
0.225457
0.203213
0.182812
0.164154
0.147136
0.131656
0.11761
0.104896
0.093414
0.0830694
0.0737701
0.0654287
0.0579628
0.0512951
0.0453532
0.0400703
0.0353844
0.0312385
0.0275809
0.0243641
0.0215455
0.0190866
0.0169532
0.0151147
0.0135445
0.0122193
0.0111192
0.0102275
0.00953024
0.00901672
0.00867885
0.00851129
0.972637
0.918067
0.863964
0.810626
0.758334
0.707345
0.65789
0.610169
0.564347
0.520559
0.478906
0.439459
0.402258
0.367317
0.334625
0.30415
0.275843
0.249637
0.225457
0.203213
0.182812
0.164154
0.147136
0.131656
0.11761
0.104896
0.093414
0.0830694
0.0737701
0.0654287
0.0579628
0.0512951
0.0453532
0.0400703
0.0353843
0.0312385
0.0275809
0.0243641
0.0215455
0.0190866
0.0169532
0.0151148
0.0135446
0.0122194
0.0111193
0.0102276
0.00953034
0.00901682
0.00867895
0.0085114
)
;

boundaryField
{
    inlet
    {
        type            fixedValue;
        value           uniform 1;
    }
    outlet
    {
        type            zeroGradient;
    }
    lowerWall
    {
        type            zeroGradient;
    }
    upperWall
    {
        type            zeroGradient;
    }
    frontAndBack
    {
        type            empty;
    }
}


// ************************************************************************* //
