/*--------------------------------*- C++ -*----------------------------------*\
  =========                 |
  \\      /  F ield         | OpenFOAM: The Open Source CFD Toolbox
   \\    /   O peration     | Website:  https://openfoam.org
    \\  /    A nd           | Version:  12
     \\/     M anipulation  |
\*---------------------------------------------------------------------------*/
FoamFile
{
    format      ascii;
    class       volScalarField;
    location    "2";
    object      T;
}
// * * * * * * * * * * * * * * * * * * * * * * * * * * * * * * * * * * * * * //

dimensions      [0 0 0 1 0 0 0];

internalField   nonuniform List<scalar> 
1250
(
0.949756
0.851237
0.757268
0.669428
0.588578
0.515064
0.448881
0.389782
0.337371
0.291163
0.25063
0.215231
0.184436
0.157737
0.134662
0.114772
0.0976702
0.0829996
0.07044
0.0597079
0.0505533
0.0427566
0.0361263
0.0304955
0.0257198
0.021674
0.0182504
0.0153565
0.0129126
0.0108508
0.00911292
0.00764941
0.00641803
0.00538292
0.00451361
0.00378432
0.00317321
0.00266185
0.00223472
0.00187875
0.001583
0.00133831
0.00113707
0.000973012
0.00084097
0.000736791
0.000657181
0.000599614
0.000562255
0.000543896
0.949756
0.851237
0.757268
0.669428
0.588578
0.515065
0.448881
0.389782
0.337371
0.291163
0.25063
0.215231
0.184436
0.157738
0.134662
0.114772
0.0976702
0.0829996
0.07044
0.0597079
0.0505533
0.0427566
0.0361263
0.0304955
0.0257198
0.021674
0.0182504
0.0153564
0.0129126
0.0108508
0.0091129
0.00764938
0.00641801
0.00538289
0.00451357
0.00378427
0.00317315
0.00266179
0.00223465
0.00187868
0.00158292
0.00133822
0.00113699
0.000972918
0.000840874
0.000736695
0.000657087
0.000599528
0.000562188
0.000543884
0.949756
0.851237
0.757268
0.669428
0.588578
0.515064
0.448881
0.389782
0.337371
0.291163
0.25063
0.215231
0.184436
0.157738
0.134662
0.114772
0.0976702
0.0829996
0.07044
0.0597079
0.0505533
0.0427566
0.0361263
0.0304955
0.0257198
0.021674
0.0182504
0.0153564
0.0129126
0.0108508
0.00911289
0.00764937
0.00641799
0.00538286
0.00451355
0.00378425
0.00317312
0.00266176
0.00223462
0.00187864
0.00158288
0.00133818
0.00113694
0.000972877
0.000840834
0.000736655
0.000657051
0.000599498
0.000562168
0.000543871
0.949756
0.851237
0.757268
0.669428
0.588578
0.515064
0.448881
0.389782
0.337371
0.291163
0.25063
0.215231
0.184436
0.157738
0.134662
0.114772
0.0976702
0.0829996
0.07044
0.0597079
0.0505533
0.0427566
0.0361263
0.0304955
0.0257198
0.021674
0.0182504
0.0153564
0.0129126
0.0108508
0.00911288
0.00764935
0.00641797
0.00538285
0.00451353
0.00378422
0.0031731
0.00266173
0.00223459
0.00187861
0.00158285
0.00133815
0.00113691
0.000972848
0.000840806
0.000736631
0.000657029
0.000599479
0.000562154
0.00054386
0.949756
0.851237
0.757268
0.669428
0.588578
0.515064
0.448881
0.389782
0.337371
0.291163
0.25063
0.215231
0.184436
0.157738
0.134662
0.114772
0.0976702
0.0829996
0.07044
0.0597079
0.0505533
0.0427566
0.0361263
0.0304955
0.0257198
0.021674
0.0182504
0.0153564
0.0129125
0.0108507
0.00911286
0.00764934
0.00641796
0.00538283
0.00451351
0.0037842
0.00317308
0.00266171
0.00223457
0.00187859
0.00158283
0.00133813
0.00113689
0.000972828
0.000840787
0.000736614
0.000657015
0.000599469
0.000562145
0.000543854
0.949756
0.851237
0.757268
0.669428
0.588578
0.515064
0.448881
0.389782
0.337371
0.291163
0.25063
0.215231
0.184436
0.157738
0.134662
0.114772
0.0976702
0.0829996
0.07044
0.0597079
0.0505532
0.0427566
0.0361263
0.0304955
0.0257197
0.021674
0.0182504
0.0153564
0.0129125
0.0108507
0.00911285
0.00764933
0.00641794
0.00538281
0.0045135
0.00378419
0.00317306
0.00266169
0.00223455
0.00187857
0.00158281
0.00133812
0.00113688
0.000972815
0.000840776
0.000736605
0.000657009
0.000599465
0.000562143
0.000543853
0.949756
0.851237
0.757268
0.669428
0.588578
0.515064
0.448881
0.389782
0.337371
0.291163
0.25063
0.215231
0.184436
0.157737
0.134662
0.114772
0.0976702
0.0829996
0.07044
0.0597079
0.0505532
0.0427566
0.0361263
0.0304955
0.0257197
0.0216739
0.0182504
0.0153564
0.0129125
0.0108507
0.00911284
0.00764931
0.00641793
0.0053828
0.00451348
0.00378417
0.00317305
0.00266168
0.00223454
0.00187856
0.0015828
0.00133811
0.00113687
0.00097281
0.000840773
0.000736604
0.00065701
0.000599468
0.000562148
0.000543858
0.949756
0.851237
0.757268
0.669428
0.588578
0.515064
0.448881
0.389782
0.337371
0.291163
0.25063
0.215231
0.184436
0.157737
0.134662
0.114772
0.0976702
0.0829996
0.07044
0.0597079
0.0505532
0.0427566
0.0361262
0.0304955
0.0257197
0.0216739
0.0182504
0.0153564
0.0129125
0.0108507
0.00911282
0.0076493
0.00641791
0.00538279
0.00451347
0.00378416
0.00317304
0.00266167
0.00223453
0.00187855
0.0015828
0.0013381
0.00113687
0.000972813
0.000840779
0.000736611
0.000657019
0.000599479
0.00056216
0.000543871
0.949756
0.851237
0.757268
0.669428
0.588578
0.515064
0.448881
0.389782
0.337371
0.291163
0.25063
0.215231
0.184436
0.157737
0.134662
0.114772
0.0976702
0.0829996
0.07044
0.0597079
0.0505532
0.0427566
0.0361262
0.0304955
0.0257197
0.0216739
0.0182504
0.0153564
0.0129125
0.0108507
0.00911281
0.00764929
0.0064179
0.00538278
0.00451346
0.00378415
0.00317303
0.00266167
0.00223453
0.00187856
0.0015828
0.00133811
0.00113688
0.000972824
0.000840792
0.000736627
0.000657037
0.000599498
0.00056218
0.000543891
0.949756
0.851237
0.757268
0.669428
0.588578
0.515064
0.448881
0.389782
0.337371
0.291163
0.25063
0.215231
0.184436
0.157737
0.134662
0.114772
0.0976702
0.0829995
0.07044
0.0597079
0.0505532
0.0427565
0.0361262
0.0304955
0.0257197
0.0216739
0.0182503
0.0153564
0.0129125
0.0108507
0.0091128
0.00764928
0.00641789
0.00538277
0.00451345
0.00378415
0.00317303
0.00266167
0.00223453
0.00187856
0.00158281
0.00133812
0.0011369
0.000972842
0.000840813
0.00073665
0.000657062
0.000599525
0.000562208
0.000543919
0.949756
0.851237
0.757268
0.669428
0.588578
0.515064
0.448881
0.389782
0.337371
0.291163
0.25063
0.215231
0.184436
0.157737
0.134662
0.114772
0.0976702
0.0829995
0.0704399
0.0597079
0.0505532
0.0427565
0.0361262
0.0304955
0.0257197
0.0216739
0.0182503
0.0153563
0.0129125
0.0108507
0.00911279
0.00764927
0.00641788
0.00538276
0.00451345
0.00378415
0.00317303
0.00266167
0.00223454
0.00187857
0.00158282
0.00133814
0.00113692
0.000972868
0.000840842
0.000736682
0.000657096
0.00059956
0.000562243
0.000543954
0.949756
0.851237
0.757268
0.669428
0.588578
0.515064
0.448881
0.389782
0.337371
0.291163
0.25063
0.215231
0.184436
0.157737
0.134662
0.114772
0.0976702
0.0829995
0.0704399
0.0597079
0.0505532
0.0427565
0.0361262
0.0304955
0.0257197
0.0216739
0.0182503
0.0153563
0.0129125
0.0108507
0.00911278
0.00764926
0.00641788
0.00538276
0.00451345
0.00378415
0.00317304
0.00266168
0.00223455
0.00187859
0.00158285
0.00133817
0.00113695
0.000972901
0.000840878
0.000736721
0.000657137
0.000599603
0.000562287
0.000543998
0.949756
0.851237
0.757268
0.669428
0.588578
0.515064
0.448881
0.389782
0.337371
0.291163
0.25063
0.215231
0.184436
0.157737
0.134662
0.114772
0.0976702
0.0829995
0.0704399
0.0597078
0.0505532
0.0427565
0.0361262
0.0304954
0.0257197
0.0216739
0.0182503
0.0153563
0.0129124
0.0108506
0.00911277
0.00764925
0.00641788
0.00538276
0.00451345
0.00378416
0.00317305
0.0026617
0.00223457
0.00187861
0.00158287
0.0013382
0.00113699
0.000972942
0.000840923
0.000736769
0.000657187
0.000599654
0.000562339
0.000544049
0.949756
0.851237
0.757268
0.669428
0.588578
0.515064
0.448881
0.389782
0.337371
0.291163
0.25063
0.215231
0.184436
0.157737
0.134662
0.114772
0.0976702
0.0829995
0.0704399
0.0597078
0.0505532
0.0427565
0.0361262
0.0304954
0.0257196
0.0216739
0.0182503
0.0153563
0.0129124
0.0108506
0.00911276
0.00764925
0.00641787
0.00538276
0.00451346
0.00378417
0.00317306
0.00266172
0.0022346
0.00187864
0.00158291
0.00133824
0.00113703
0.00097299
0.000840975
0.000736824
0.000657244
0.000599713
0.000562398
0.000544108
0.949756
0.851237
0.757268
0.669428
0.588578
0.515064
0.448881
0.389782
0.337371
0.291163
0.25063
0.215231
0.184436
0.157737
0.134662
0.114772
0.0976702
0.0829995
0.0704399
0.0597078
0.0505532
0.0427565
0.0361262
0.0304954
0.0257196
0.0216738
0.0182503
0.0153563
0.0129124
0.0108506
0.00911276
0.00764925
0.00641788
0.00538277
0.00451347
0.00378418
0.00317308
0.00266174
0.00223463
0.00187868
0.00158295
0.00133829
0.00113708
0.000973046
0.000841034
0.000736886
0.000657309
0.000599779
0.000562465
0.000544175
0.949756
0.851237
0.757268
0.669428
0.588578
0.515064
0.448881
0.389782
0.337371
0.291163
0.25063
0.215231
0.184436
0.157737
0.134662
0.114772
0.0976702
0.0829995
0.0704399
0.0597078
0.0505531
0.0427565
0.0361262
0.0304954
0.0257196
0.0216738
0.0182503
0.0153563
0.0129124
0.0108506
0.00911276
0.00764925
0.00641788
0.00538277
0.00451348
0.0037842
0.0031731
0.00266177
0.00223466
0.00187872
0.00158299
0.00133834
0.00113714
0.000973108
0.0008411
0.000736955
0.000657381
0.000599853
0.000562539
0.000544248
0.949756
0.851237
0.757268
0.669428
0.588578
0.515064
0.448881
0.389782
0.337371
0.291163
0.25063
0.215231
0.184436
0.157737
0.134662
0.114772
0.0976701
0.0829995
0.0704399
0.0597078
0.0505531
0.0427565
0.0361261
0.0304954
0.0257196
0.0216738
0.0182503
0.0153563
0.0129124
0.0108506
0.00911276
0.00764925
0.00641789
0.00538278
0.0045135
0.00378422
0.00317313
0.0026618
0.0022347
0.00187876
0.00158305
0.00133839
0.0011372
0.000973176
0.000841173
0.000737032
0.00065746
0.000599933
0.00056262
0.000544329
0.949756
0.851237
0.757268
0.669428
0.588578
0.515064
0.448881
0.389782
0.337371
0.291163
0.25063
0.215231
0.184436
0.157737
0.134662
0.114772
0.0976701
0.0829995
0.0704399
0.0597078
0.0505531
0.0427565
0.0361261
0.0304954
0.0257196
0.0216738
0.0182503
0.0153563
0.0129124
0.0108506
0.00911276
0.00764925
0.00641789
0.0053828
0.00451351
0.00378424
0.00317316
0.00266184
0.00223474
0.00187882
0.0015831
0.00133846
0.00113727
0.000973251
0.000841252
0.000737115
0.000657546
0.000600021
0.000562708
0.000544416
0.949756
0.851237
0.757268
0.669428
0.588578
0.515064
0.448881
0.389782
0.337371
0.291163
0.25063
0.215231
0.184436
0.157737
0.134662
0.114772
0.0976701
0.0829995
0.0704399
0.0597078
0.0505531
0.0427564
0.0361261
0.0304954
0.0257196
0.0216738
0.0182502
0.0153563
0.0129124
0.0108506
0.00911276
0.00764926
0.00641791
0.00538281
0.00451354
0.00378427
0.0031732
0.00266188
0.00223479
0.00187887
0.00158317
0.00133853
0.00113734
0.000973331
0.000841338
0.000737204
0.000657638
0.000600114
0.000562802
0.00054451
0.949756
0.851237
0.757268
0.669428
0.588578
0.515064
0.448881
0.389782
0.337371
0.291163
0.25063
0.215231
0.184436
0.157737
0.134662
0.114772
0.0976701
0.0829995
0.0704399
0.0597078
0.0505531
0.0427564
0.0361261
0.0304954
0.0257196
0.0216738
0.0182502
0.0153563
0.0129124
0.0108506
0.00911277
0.00764927
0.00641792
0.00538283
0.00451356
0.0037843
0.00317323
0.00266192
0.00223484
0.00187893
0.00158323
0.0013386
0.00113743
0.000973417
0.000841429
0.000737299
0.000657736
0.000600214
0.000562903
0.000544609
0.949756
0.851237
0.757268
0.669428
0.588578
0.515064
0.448881
0.389782
0.337371
0.291163
0.25063
0.215231
0.184436
0.157737
0.134662
0.114772
0.0976701
0.0829995
0.0704399
0.0597078
0.0505531
0.0427564
0.0361261
0.0304954
0.0257196
0.0216738
0.0182502
0.0153563
0.0129124
0.0108506
0.00911277
0.00764928
0.00641794
0.00538286
0.00451359
0.00378434
0.00317328
0.00266197
0.0022349
0.00187899
0.0015833
0.00133868
0.00113751
0.000973508
0.000841525
0.0007374
0.000657839
0.000600319
0.000563008
0.000544714
0.949756
0.851237
0.757268
0.669428
0.588578
0.515064
0.448881
0.389782
0.337371
0.291163
0.25063
0.215231
0.184436
0.157737
0.134662
0.114772
0.0976701
0.0829994
0.0704399
0.0597078
0.0505531
0.0427564
0.0361261
0.0304954
0.0257196
0.0216738
0.0182502
0.0153563
0.0129124
0.0108506
0.00911278
0.0076493
0.00641795
0.00538288
0.00451362
0.00378437
0.00317332
0.00266203
0.00223496
0.00187906
0.00158338
0.00133876
0.0011376
0.000973603
0.000841625
0.000737505
0.000657948
0.000600429
0.000563119
0.000544823
0.949756
0.851237
0.757268
0.669428
0.588578
0.515064
0.448881
0.389782
0.337371
0.291163
0.25063
0.215231
0.184436
0.157737
0.134662
0.114772
0.0976701
0.0829994
0.0704399
0.0597078
0.0505531
0.0427564
0.0361261
0.0304954
0.0257196
0.0216738
0.0182502
0.0153563
0.0129124
0.0108506
0.00911279
0.00764931
0.00641798
0.00538291
0.00451365
0.00378441
0.00317337
0.00266208
0.00223502
0.00187913
0.00158346
0.00133885
0.00113769
0.000973703
0.00084173
0.000737614
0.00065806
0.000600544
0.000563233
0.000544937
0.949756
0.851237
0.757268
0.669428
0.588578
0.515064
0.448881
0.389782
0.337371
0.291163
0.25063
0.215231
0.184436
0.157737
0.134662
0.114772
0.0976701
0.0829994
0.0704398
0.0597078
0.0505531
0.0427564
0.0361261
0.0304954
0.0257196
0.0216738
0.0182502
0.0153563
0.0129124
0.0108506
0.00911281
0.00764933
0.006418
0.00538293
0.00451369
0.00378446
0.00317342
0.00266214
0.00223509
0.0018792
0.00158354
0.00133894
0.00113779
0.000973804
0.000841837
0.000737726
0.000658175
0.000600661
0.000563351
0.000545054
0.949756
0.851237
0.757268
0.669428
0.588578
0.515064
0.448881
0.389782
0.337371
0.291163
0.25063
0.215231
0.184436
0.157737
0.134662
0.114772
0.0976701
0.0829994
0.0704398
0.0597078
0.0505531
0.0427564
0.0361261
0.0304954
0.0257196
0.0216738
0.0182502
0.0153563
0.0129124
0.0108507
0.00911282
0.00764935
0.00641802
0.00538296
0.00451372
0.0037845
0.00317347
0.00266219
0.00223515
0.00187928
0.00158362
0.00133903
0.00113788
0.000973908
0.000841947
0.00073784
0.000658293
0.000600781
0.000563472
0.000545173
)
;

boundaryField
{
    inlet
    {
        type            fixedValue;
        value           uniform 1;
    }
    outlet
    {
        type            zeroGradient;
    }
    lowerWall
    {
        type            zeroGradient;
    }
    upperWall
    {
        type            zeroGradient;
    }
    frontAndBack
    {
        type            empty;
    }
}


// ************************************************************************* //
